39
 energy: -73.581754562711 gnorm: 0.094689828345 xtb: 6.6.1 (8d0f1dd)
C            3.41831490640582       -0.05271493399466       -0.31193614076518
C            1.95903878854285        0.39537757247109       -0.52433833407405
C            1.14440055212264        0.33753056260187        0.79764950261262
C           -0.27944879362417        0.87811147546305        0.55307797256798
C           -1.10330319923420        1.08927842042322        1.81986806572012
N           -2.48890719481825        1.46367055976828        1.53398930831042
C           -2.98559940389310        1.07221952175247        0.41697417868344
N           -4.27224922983474        1.35044619278850        0.11242618963170
N           -2.35629679035009        0.42159696438412       -0.58601548699503
C           -1.00010105311752       -0.07315307199096       -0.41278122131229
C           -0.22653176434601       -0.04109932182386       -1.76175353942208
C            1.22464155843101       -0.53553562778343       -1.50802776465796
O            1.20936589836250       -1.86477303533020       -0.95396746558132
C            0.50028261970833       -1.89458003000400        0.27985001567315
C           -0.99112855863409       -1.53844636577998        0.07792087491178
O           -1.74303514938603       -1.74770073642766        1.28555224325197
O            0.56653659412734       -3.20708154174150        0.80058072643222
O            1.10036637060708       -1.03169056753343        1.24358039317817
O           -0.87869508773099       -0.89343250459564       -2.71740551992750
O           -0.46158521584147        2.10727033825797        2.58125363551615
O            1.99167702290246        1.72709220972027       -1.05111960691423
O            4.09050428318224        0.94867113400723        0.45905750159722
H            3.94160324065383       -0.11958465487775       -1.27166142515675
H            3.49802454510641       -1.01328641230068        0.20559000900586
H            1.63978030110656        0.93397810957239        1.57140871046559
H           -0.19010528599818        1.87177867502579        0.08736806001310
H           -1.10120173450542        0.20594543946296        2.46323975337855
H           -4.78131589254660        0.55263500993317       -0.24233256943371
H           -4.74089536365495        1.73241548080438        0.92780536184161
H           -2.89815296244438        0.00062669868588       -1.33011827395811
H           -0.23002423003384        0.96990480303824       -2.18654903116623
H            1.75254918919883       -0.58793748435038       -2.46716803842655
H           -1.44089404103932       -2.20539996129536       -0.66723728243485
H           -1.39393575191534       -2.57910320932947        1.66511273930629
H            1.51179937290512       -3.30753171907361        0.99639684657623
H           -0.39541052468240       -0.81107722319025       -3.55934482484794
H           -1.22383707200280        2.62847272758571        2.89196616482647
H            2.64688591173452        2.20443649834863       -0.49604266812718
H            4.98688314453652        0.61267000732679        0.64139186315717
39
 energy: -73.593175921152 gnorm: 0.044638935139 xtb: 6.6.1 (8d0f1dd)
C            3.41203481035103       -0.05400900637942       -0.30916012508141
C            1.95652732043653        0.39818871020206       -0.51857632544431
C            1.14159596388260        0.32672850052477        0.79716029277638
C           -0.27024280427449        0.86912382148345        0.54484393315041
C           -1.09026066834599        1.08590180388576        1.81811917303558
N           -2.46249465499359        1.44261898728466        1.53199710357743
C           -2.97665691515071        1.05552113660340        0.42723255885691
N           -4.28665218508690        1.35877294695650        0.13618355016150
N           -2.33874969834216        0.41593855562626       -0.59223245419816
C           -0.99323361619085       -0.07274419522812       -0.42249429978833
C           -0.22190142078477       -0.04809539688780       -1.75924309386480
C            1.22060724172388       -0.53375246259761       -1.49621379323009
O            1.21003037049279       -1.84951978830723       -0.94235311885551
C            0.50632357303959       -1.88841126475736        0.28252653556830
C           -0.97363734823352       -1.53308054351921        0.06656402160405
O           -1.71801057053177       -1.72467343597862        1.26071316241604
O            0.58241422266997       -3.18262100718933        0.78907673717798
O            1.10985121125483       -1.03464987456125        1.23152601016588
O           -0.88691069550882       -0.88815030642831       -2.69771124920923
O           -0.48114255227873        2.12721579325649        2.56801217933449
O            1.97353943072172        1.71197648797296       -1.04885587288768
O            4.06837826466862        0.94987739726231        0.46107494603969
H            3.90770474271204       -0.13702585704821       -1.28581179732370
H            3.45640094563378       -1.01853060722841        0.20517301931745
H            1.63144988623569        0.90051476697065        1.58835560655033
H           -0.17676264078660        1.85505851620025        0.07279049504981
H           -1.09611595676213        0.18505127384597        2.44635274606918
H           -4.80719282392229        0.58192122487411       -0.25089877208763
H           -4.75521617744201        1.74871514525760        0.94439938760008
H           -2.88063720033365       -0.00422546779878       -1.33189379911142
H           -0.20180647406255        0.97600078855780       -2.15139022773851
H            1.75915716421774       -0.60970761898921       -2.44692377451205
H           -1.39599282867127       -2.19065351303394       -0.70494500133565
H           -1.38490740836138       -2.54672046101106        1.65530718394671
H            1.51708092463801       -3.31772736205619        0.99827633154960
H           -0.40911691365543       -0.82890783627496       -3.53679382153023
H           -1.23140817012484        2.64249817390619        2.89516955478496
H            2.62447981566328        2.19769835978192       -0.51149143700143
H            4.96147383550249        0.63388361482110        0.65039535792427
39
 energy: -73.596580355765 gnorm: 0.012045218734 xtb: 6.6.1 (8d0f1dd)
C            3.39799120853069       -0.05297684737677       -0.30724637082244
C            1.94613191590214        0.40541946115783       -0.52248205552508
C            1.14250252175759        0.31873855245266        0.79782089149005
C           -0.25846837044141        0.86670917260196        0.54409092286308
C           -1.08420289465347        1.08789561236854        1.81725432451742
N           -2.44860613912897        1.41899022236814        1.53178266749650
C           -2.97306020121813        1.03935224739288        0.43603658095631
N           -4.29311753228106        1.36743635499828        0.15674651939446
N           -2.32549044864593        0.41334022221422       -0.59649891103895
C           -0.98651565721463       -0.07013807875208       -0.42293437216771
C           -0.21647052446808       -0.04660175344372       -1.75508560985750
C            1.21759601186163       -0.54098395047565       -1.49209328077691
O            1.21619014670742       -1.84621163480858       -0.93710808811181
C            0.51801929024909       -1.88897394444321        0.28573097107759
C           -0.95695596500294       -1.53198490649947        0.06364945428970
O           -1.70725994032256       -1.71411923587122        1.23460533342936
O            0.59140027594341       -3.16584988338871        0.78172020390956
O            1.11877260216846       -1.03705192854928        1.22259217871000
O           -0.89125847530268       -0.87086412146343       -2.67969604364932
O           -0.49788290431618        2.14200455798138        2.55252159150139
O            1.94950947200880        1.70395866447892       -1.05490879002555
O            4.04315605143600        0.95057505040019        0.45414561839445
H            3.88208474909544       -0.15685046520758       -1.28926521196741
H            3.41484707225818       -1.01750728098319        0.20939663341056
H            1.62962550457541        0.87395474342554        1.60310843489280
H           -0.15863461807802        1.84645532067352        0.06582891428735
H           -1.07846469967995        0.17579035860182        2.43638514303151
H           -4.82248520908162        0.61544696207638       -0.26782702945389
H           -4.75963720250705        1.75539008306258        0.96354158294198
H           -2.86609278704899       -0.01024011869805       -1.33297651556984
H           -0.16955069873922        0.98731182300658       -2.12557457374012
H            1.76518800612883       -0.63260274991962       -2.43674345246707
H           -1.34646561571090       -2.18188706944507       -0.73664810791845
H           -1.38524414595110       -2.52404792182799        1.65142415987376
H            1.51598536228288       -3.34280937630932        1.00373053426962
H           -0.41334420812049       -0.84523397101623       -3.51637095615434
H           -1.23706874179254        2.65426034723785        2.89869251759139
H            2.59354563736986        2.20236753645283       -0.53079931932019
H            4.93373115143024        0.65153794552627        0.65771443369462
39
 energy: -73.597022702563 gnorm: 0.008184103436 xtb: 6.6.1 (8d0f1dd)
C            3.39503295079253       -0.05080464099522       -0.30575319862508
C            1.94345942207317        0.40535405230082       -0.52581747989300
C            1.14402925608660        0.31709952845214        0.79812572092264
C           -0.25530382526612        0.86767261474505        0.54710454916336
C           -1.08137859298635        1.08957588972839        1.82121259945944
N           -2.44739866650331        1.40677768280084        1.53673137390502
C           -2.97240066604660        1.03432977389139        0.43944780730682
N           -4.29052657071857        1.37113121869951        0.16503816494462
N           -2.32195350853261        0.41537276963866       -0.59741204948072
C           -0.98287622950316       -0.06778384133954       -0.42257620495084
C           -0.21448945616072       -0.04633402239336       -1.75731083311107
C            1.21756460269437       -0.54698060921237       -1.49272452300456
O            1.21893192289465       -1.85022173384002       -0.93705250144464
C            0.52267607340052       -1.89260886112677        0.28898051108661
C           -0.95311252325276       -1.53305370831679        0.06043672447674
O           -1.71267433354444       -1.71573371822435        1.22062064620870
O            0.58917911286846       -3.16750116264005        0.78349425888689
O            1.12400263396111       -1.03816754648332        1.22264617813141
O           -0.89990361482596       -0.85783687120676       -2.68129368243255
O           -0.50247567353998        2.15053286289203        2.54699176740007
O            1.93683428418953        1.69895837359375       -1.06394078404848
O            4.03322515393111        0.95774123189223        0.44847462226810
H            3.88119069385495       -0.16798916456717       -1.28522927682145
H            3.40227095187226       -1.01163020864711        0.21818262602881
H            1.63470517288555        0.86911027318430        1.60311782665489
H           -0.15174231070348        1.84657234464317        0.06794461399469
H           -1.06110114902565        0.17786824802203        2.44247182828462
H           -4.82277386006788        0.63457241259488       -0.28122718808564
H           -4.75600422283897        1.74999993963189        0.97641661906876
H           -2.86137734720855       -0.01213805927733       -1.33285475200799
H           -0.15436267855911        0.98991057952390       -2.12095004297091
H            1.76657151443371       -0.63918311340252       -2.43642618062059
H           -1.32932264455724       -2.17976288406027       -0.75018724412057
H           -1.39100085598607       -2.51909414503527        1.65024483007291
H            1.50995810158375       -3.36167942084812        1.00662233707949
H           -0.41391352491883       -0.85645817622587       -3.51457718787172
H           -1.24146630873934        2.65719767160280        2.90309418635932
H            2.57471874165954        2.20962385667943       -0.54374933445375
H            4.92320797430402        0.66556056332420        0.66594359569658
39
 energy: -73.597318414106 gnorm: 0.006730732582 xtb: 6.6.1 (8d0f1dd)
C            3.39443879567399       -0.04658508934764       -0.30317487269492
C            1.94203343548945        0.40236315096518       -0.53202376244201
C            1.14677380440896        0.31582507242698        0.79616199929369
C           -0.25243839731856        0.86795265503818        0.54972583402890
C           -1.07693476909493        1.08819175482388        1.82621180630307
N           -2.44710542132234        1.38893967025457        1.54639009241154
C           -2.97130924172968        1.02924604315532        0.44374274345847
N           -4.28492030579046        1.37411462791420        0.17710687094936
N           -2.31940965288595        0.42047763063482       -0.59866621890186
C           -0.97994922945760       -0.06454906963244       -0.42311704720842
C           -0.21151356386440       -0.04431404455334       -1.76014586300660
C            1.21807968414130       -0.55624451007151       -1.49545341687860
O            1.21950130463060       -1.85790416963509       -0.93757009297587
C            0.52346299642935       -1.89600959939619        0.29247154723666
C           -0.95353443464290       -1.53305924163246        0.05667409031226
O           -1.72507126362739       -1.71895497056155        1.20592131624271
O            0.58061696047421       -3.17002794196031        0.78894585718449
O            1.12846743863690       -1.03940783506274        1.22282416834758
O           -0.90864623808923       -0.84069857341653       -2.68603989358224
O           -0.50694539131721        2.16004757605403        2.53931041623573
O            1.92581317448412        1.69157600620580       -1.07820260510176
O            4.02444200686551        0.97240141862102        0.43912289465179
H            3.88615134943178       -0.18060993533881       -1.27753549220684
H            3.39558798031906       -1.00038514685579        0.23372935818415
H            1.64384442065476        0.86687324796989        1.59780640915688
H           -0.14626367915990        1.84770739303477        0.07247288602323
H           -1.03785815662980        0.18049773116226        2.45414452921425
H           -4.81976223475375        0.66079330660687       -0.30187951876603
H           -4.74983416332947        1.73482057339196        0.99731229370559
H           -2.85731791133244       -0.01332484168023       -1.33217674060708
H           -0.13744847058190        0.99272261305892       -2.11857782375316
H            1.76809837394435       -0.64805605343392       -2.43868034724057
H           -1.31726208401262       -2.17607397655316       -0.76239574477875
H           -1.40092476688868       -2.51434176836154        1.64893988879083
H            1.49773463414928       -3.38180011338268        1.00799751594292
H           -0.40856089538141       -0.87147521001224       -3.51186505596616
H           -1.24865290029986        2.65572107121896        2.90760723039421
H            2.55415002601167        2.21669240593735       -0.55964826942227
H            4.91246678576530        0.68685814241243        0.67679394092179
39
 energy: -73.597443421709 gnorm: 0.005819086166 xtb: 6.6.1 (8d0f1dd)
C            3.39626725408957       -0.04381269641512       -0.30132308854849
C            1.94271000683683        0.39905294554611       -0.53575994816980
C            1.14824290365720        0.31544220142273        0.79357962240290
C           -0.25117306047554        0.86801344718098        0.55017440676912
C           -1.07317707286669        1.08516142405697        1.82884841370856
N           -2.44666933342629        1.37532702879069        1.55414276824554
C           -2.96990381939959        1.02601914029671        0.44680154489834
N           -4.28089195393861        1.37381974276093        0.18699506078600
N           -2.31790164621867        0.42627711183672       -0.60046286019142
C           -0.97892206108007       -0.06186832857953       -0.42440692474598
C           -0.20971162591871       -0.04360925402710       -1.76168252138684
C            1.21830994075417       -0.56195233104890       -1.49671884215478
O            1.21705177741153       -1.86283504974940       -0.93711610123310
C            0.51991711048207       -1.89662054581531        0.29423398845674
C           -0.95656400756626       -1.53122266183617        0.05384033632219
O           -1.73472809269809       -1.71935914846235        1.19809764425087
O            0.57123496250777       -3.17021423870529        0.79356425919082
O            1.12845946421961       -1.03987477059427        1.22238824263548
O           -0.91099038930411       -0.83271753041323       -2.69036068737743
O           -0.50889467934948        2.16525055361756        2.53424950745612
O            1.92317405768848        1.68630844378793       -1.08698755270913
O            4.02149480285771        0.98526030632375        0.43069905808674
H            3.89167737028274       -0.18781591121584       -1.27222893618864
H            3.39872623504331       -0.99144161771246        0.24647286112634
H            1.64911869325127        0.86721135954637        1.59248226192781
H           -0.14566474673630        1.84960115863924        0.07637464859232
H           -1.02310423834725        0.18146412176464        2.46209137942265
H           -4.81606588707097        0.67916473414111       -0.31736711454118
H           -4.74683827650627        1.71800629836951        1.01380584635061
H           -2.85498092547924       -0.01249575211271       -1.33189414021897
H           -0.12932056618042        0.99298933779617       -2.11836801451146
H            1.76806443864002       -0.65481801548347       -2.44011167066631
H           -1.31592987140652       -2.17232833915466       -0.76767218001158
H           -1.40810024441356       -2.51033212757280        1.64683426685044
H            1.48710110574750       -3.39054040208256        1.00629831422666
H           -0.40139515266325       -0.88203342419875       -3.50889560428783
H           -1.25350219021513        2.65122618741944        2.91023884099272
H            2.54594567297623        2.21752414904429       -0.56820240442658
H            4.90693404481511        0.70277245283730        0.68160624212754
39
 energy: -73.597546820591 gnorm: 0.004583589753 xtb: 6.6.1 (8d0f1dd)
C            3.39896411490941       -0.04146957442105       -0.29959959590659
C            1.94412990112561        0.39533401425729       -0.53843058400765
C            1.14936965801694        0.31542821059759        0.79079877295614
C           -0.24988351519254        0.86842599090520        0.54921535563403
C           -1.06875528657407        1.08067960093647        1.83030035660868
N           -2.44563655324557        1.36034201880506        1.56211760274193
C           -2.96811108639842        1.02229271055623        0.45020856883491
N           -4.27805052987824        1.37031615549399        0.19922131049047
N           -2.31599495587052        0.43517271165076       -0.60409875490610
C           -0.97839729386748       -0.05814171841297       -0.42696553180093
C           -0.20742945666342       -0.04253266748182       -1.76309908979686
C            1.21864473293043       -0.56664890530568       -1.49718198286309
O            1.21265605257639       -1.86682186196502       -0.93557174905196
C            0.51338410147191       -1.89550274069793        0.29542726556965
C           -0.96129177499075       -1.52708828757011        0.05101854522996
O           -1.74492911676567       -1.71620557700732        1.19223956495713
O            0.55931735411814       -3.16862302218557        0.79798666235333
O            1.12571037574188       -1.03993513649519        1.22166788270871
O           -0.91009886399871       -0.82842904382511       -2.69391070808419
O           -0.50973806430640        2.16883152088362        2.52946368187755
O            1.92395603948468        1.68137552114033       -1.09378736539007
O            4.02086218674195        0.99980307841445        0.41985959049201
H            3.89650316709960       -0.19472196947965       -1.26779502669742
H            3.40650888592051       -0.98173815676219        0.26081311495072
H            1.65249525912239        0.86816457089774        1.58783533848814
H           -0.14669814241707        1.85255052914426        0.08012737465734
H           -1.00894171211830        0.18117176344793        2.46824687817257
H           -4.81175617824128        0.69795683182579       -0.33423297753458
H           -4.74699153975558        1.69401551423049        1.03238170938555
H           -2.85277779714333       -0.00957137023537       -1.33230128654888
H           -0.12308452127762        0.99307458234205       -2.12005076807134
H            1.76779077845138       -0.66251109791117       -2.44078460601872
H           -1.31955580427981       -2.16695359186404       -0.77101611165591
H           -1.41627334436437       -2.50397653391836        1.64440778218336
H            1.47522729968105       -3.39538588979712        1.00133870550164
H           -0.39044601592347       -0.89626257515836       -3.50356360449011
H           -1.25727791940514        2.64348188636310        2.91373527559064
H            2.54384995940582        2.21481540278385       -0.57485049609680
H            4.90274960587977        0.71928710581705        0.68308982299374
39
 energy: -73.597610999027 gnorm: 0.003321290191 xtb: 6.6.1 (8d0f1dd)
C            3.40103487777246       -0.04051215518533       -0.29878920544540
C            1.94555086996261        0.39328155356689       -0.53906748945269
C            1.14973453969130        0.31589268298767        0.78908404639740
C           -0.24881096021192        0.86992605321970        0.54776212977715
C           -1.06556769116004        1.07753292862610        1.83045432434927
N           -2.44456953508651        1.34984751481738        1.56724696331143
C           -2.96693755323584        1.01915044839145        0.45309069794387
N           -4.27811507423065        1.36405207146343        0.20966860725326
N           -2.31396972667205        0.44471356048666       -0.60845982585782
C           -0.97816504835197       -0.05398632395313       -0.42971221561147
C           -0.20554885776878       -0.04169361014693       -1.76436533491984
C            1.21899237481108       -0.56831285043068       -1.49670102551523
O            1.20839552542935       -1.86808522732061       -0.93375617353013
C            0.50720547022063       -1.89328061654966        0.29571325987142
C           -0.96544901706652       -1.52199063432399        0.04910244991821
O           -1.75159024693964       -1.70970478262272        1.18980152759345
O            0.54989907569714       -3.16615417895143        0.79997502845355
O            1.12197313823426       -1.03934735784398        1.22110431441937
O           -0.90755571275179       -0.82890284397131       -2.69540745811677
O           -0.50969173551785        2.16998039944299        2.52737888542913
O            1.92635240242415        1.67900097651871       -1.09621150576264
O            4.02267312928021        1.00932730936433        0.41063416657119
H            3.89810932948273       -0.20024279748294       -1.26600786671029
H            3.41314119540744       -0.97503820561297        0.27102946662459
H            1.65281180221553        0.86876475653206        1.58612710737098
H           -0.14741503461656        1.85581339894621        0.08215752178771
H           -0.99973364757855        0.17998944867546        2.46988843469939
H           -4.80856187971997        0.71010002944962       -0.34714377075378
H           -4.75143449137950        1.67028016017364        1.04631961932118
H           -2.85131309530500       -0.00530396522452       -1.33312729490634
H           -0.11991585223733        0.99294540869744       -2.12341416112007
H            1.76805267468088       -0.66762875071131       -2.44005645273536
H           -1.32536238476297       -2.16187488544370       -0.77214157671380
H           -1.42282388849835       -2.49658703200476        1.64301060014889
H            1.46688629047071       -3.39616540585154        0.99470429875509
H           -0.37932798913192       -0.91189896273613       -3.49753975141212
H           -1.25855120156240        2.63591135508368        2.91886144561300
H            2.54796858989716        2.21104936130264       -0.57846671908944
H            4.90162933810852        0.72915116862080        0.68151385550067
39
 energy: -73.597653006165 gnorm: 0.002202577784 xtb: 6.6.1 (8d0f1dd)
C            3.40195124210378       -0.04083756073245       -0.29865394449789
C            1.94655420381082        0.39308162514906       -0.53856953127556
C            1.14981518026897        0.31704666332242        0.78850896402491
C           -0.24772982795706        0.87272723963149        0.54637059649008
C           -1.06353718693586        1.07638238323500        1.83003646643150
N           -2.44386168918662        1.34325074968251        1.57034146886297
C           -2.96657126679968        1.01638726022287        0.45570577057095
N           -4.28026824235415        1.35548772047744        0.21819416098049
N           -2.31184108622524        0.45444277889135       -0.61291103751682
C           -0.97789870811087       -0.04933339825700       -0.43220116688699
C           -0.20398236321471       -0.04066476513052       -1.76570211258723
C            1.21941944488678       -0.56768891115819       -1.49603115153702
O            1.20512582626399       -1.86730673846316       -0.93225620653850
C            0.50249596370582       -1.89049589407169        0.29541215937453
C           -0.96869893635633       -1.51644305375819        0.04824681259481
O           -1.75528070730434       -1.70127447414447        1.18973489419186
O            0.54324568881202       -3.16344654481730        0.79993140520387
O            1.11858575936433       -1.03799285757821        1.22090329650973
O           -0.90450956109717       -0.83188435256295       -2.69521546427904
O           -0.50961107730147        2.17026586730994        2.52740672886555
O            1.92874896548086        1.67889382258320       -1.09600553295023
O            4.02599671223758        1.01341991201774        0.40327726864609
H            3.89691529005252       -0.20593011523209       -1.26598814450613
H            3.41579839205985       -0.97135840945822        0.27735333679900
H            1.65189432295333        0.86918081374390        1.58665657330320
H           -0.14669102939551        1.85937539763554        0.08265092167696
H           -0.99364298824318        0.17874808812089        2.46848911416249
H           -4.80591891409118        0.71673314268298       -0.35872826838607
H           -4.75926436943177        1.64613843535329        1.05643967778873
H           -2.85042699152777       -0.00039340916899       -1.33383229139720
H           -0.11877754868141        0.99301882931303       -2.12815973169688
H            1.76920170802214       -0.66987823024247       -2.43862997567404
H           -1.33133315789886       -2.15712165779619       -0.77173534624274
H           -1.42812810715070       -2.48887779679341        1.64281679621933
H            1.46152455976342       -3.39515904837165        0.98775046168070
H           -0.36925867771926       -0.92796082854333       -3.49101332406006
H           -1.25851181489791        2.62934732943723        2.92617167766096
H            2.55565635826604        2.20787567150283       -0.58122729864957
H            4.90281463382887        0.73224431596703        0.67872290010026
39
 energy: -73.597674969783 gnorm: 0.001491641700 xtb: 6.6.1 (8d0f1dd)
C            3.40183797076963       -0.04225081082681       -0.29882231522565
C            1.94713266545517        0.39436306818805       -0.53774708803694
C            1.14981279683232        0.31866885958309        0.78875493662230
C           -0.24695286116526        0.87599545360189        0.54567845961747
C           -1.06298266477861        1.07750982665224        1.82963309552482
N           -2.44397304090938        1.34122653277721        1.57154834176972
C           -2.96704703799746        1.01467165020393        0.45747677176922
N           -4.28306793321327        1.34702730749256        0.22293976088858
N           -2.31028127787016        0.46154682191170       -0.61582810902285
C           -0.97760862274709       -0.04537152549921       -0.43353361470757
C           -0.20324290024529       -0.03953370554818       -1.76674906971327
C            1.21968773049261       -0.56555913259179       -1.49567048603191
O            1.20359214813382       -1.86527958018239       -0.93174126111766
C            0.50038433449445       -1.88804132273335        0.29481918312951
C           -0.97043516323552       -1.51210414033691        0.04833425922871
O           -1.75605935525583       -1.69448087333600        1.19089414811637
O            0.54028037725602       -3.16131625249098        0.79860895068892
O            1.11678836860800       -1.03620596079455        1.22103558247213
O           -0.90277945503745       -0.83470646116925       -2.69405684023893
O           -0.51010870510240        2.17097743812472        2.52848536419722
O            1.93072819354416        1.68039585807202       -1.09455893408521
O            4.02976688635552        1.01205613453483        0.39925605448593
H            3.89446557426602       -0.21129002693121       -1.26671341720720
H            3.41388559561628       -0.97116423630479        0.27951388943014