40
 energy: -61.204861508311 gnorm: 0.080197524246 xtb: 6.6.1 (8d0f1dd)
C            3.77573564980673       -0.01147027436761        0.01387818167905
N            2.41339088545702        0.50594317455681        0.09365109460861
C            1.74767384788939        0.05198598725672        1.32117424489181
C            0.33288987633447        0.63173004204196        1.44016380270836
C           -0.46728626800048        0.49849517163759        0.11770099400698
C            0.28671030708099        1.05544282066291       -1.07430983493471
C            0.24657103182353        2.57414079974935       -0.93615535180808
C           -0.73977226786196        3.21130169399333       -0.25325795202441
C           -1.90668537182599        2.50822657109969        0.46337212083722
C           -1.89987553530291        1.01203853762320        0.10699765982774
O           -2.68628205728103        0.02834588049784        0.84000961266000
C           -2.08285169072920       -1.15029731421098        0.40544710947427
C           -0.81184344963584       -0.91313205301828       -0.09659219966097
C           -0.00581489149188       -1.82529635895591       -0.74348404618413
C           -0.50896585825508       -3.12048100503007       -0.80486416609905
C           -1.77864394616618       -3.42337643587335       -0.23932007533207
C           -2.57616100058220       -2.42881710067596        0.36034107410138
O           -3.81245858686303       -2.70694531266951        0.85188181953385
C            1.27071432903884       -1.31264915810503       -1.38501477112371
C            1.61477025662575        0.23267777316699       -1.12391487121478
O           -1.77694724519740        2.73097724338225        1.86138241247502
H            4.27604750588781        0.34957114506147       -0.89134650002629
H            3.81856876615267       -1.10511889230647        0.02004382078206
H            4.36834406692410        0.35179370007130        0.86114575189935
H            2.32241260448260        0.38393631446870        2.19510464008347
H            1.71405521819768       -1.04298381404565        1.37546326427422
H           -0.18547558737839        0.14143298926476        2.27433932686561
H            0.44467287445209        1.68246046812035        1.72814776330760
H           -0.23511316938329        0.84145436729416       -2.02068543440214
H            1.03512580484326        3.14327588665053       -1.42113620959719
H           -0.71779355567575        4.29630663977659       -0.19161199314371
H           -2.85904949751651        2.95072083963210        0.15199733423679
H           -2.30861290386923        0.97545913394203       -0.92115147685212
H            0.05705752160162       -3.90809537047094       -1.29637088722596
H           -2.13966250451726       -4.44659203454462       -0.30588954012539
H           -3.97447123236083       -3.65938113991333        0.77132094188979
H            1.14699418645059       -1.42914132548494       -2.47006625091416
H            2.10862202709084       -1.95327646902232       -1.09329357780501
H            2.19415527309984        0.59082590011527       -1.98545164331539
H           -1.70074541334488        3.68851097862957        2.00035381164619
40
 energy: -61.214565128763 gnorm: 0.027761133852 xtb: 6.6.1 (8d0f1dd)
C            3.75965527545218       -0.01095258827171        0.01117220192835
N            2.40020615848295        0.49445149864699        0.08474626790410
C            1.72882425507963        0.04586977786381        1.29925482761852
C            0.33066539984161        0.65921264893716        1.42111663843558
C           -0.46855768455023        0.49498107084310        0.11693793554043
C            0.29455663858491        1.04408467615679       -1.06295372750277
C            0.26175729825780        2.54677154347051       -0.90820421152593
C           -0.73045347357260        3.16883105185622       -0.26407171745078
C           -1.90020755154681        2.52229384685155        0.48601203009249
C           -1.88933056793314        1.03847675784472        0.12420868704124
O           -2.66872589649873        0.03682711203882        0.82222526838421
C           -2.07101868781317       -1.14915748558341        0.41313928077583
C           -0.79817203934178       -0.92583819646440       -0.08384184832813
C            0.00131775981796       -1.83032409001785       -0.73276064220570
C           -0.51045373068933       -3.12143578031189       -0.80024859625790
C           -1.75904746845743       -3.41223717985203       -0.23723028177945
C           -2.57105704717283       -2.43801074792820        0.36142070009085
O           -3.81053101388354       -2.72389895752503        0.84831112073831
C            1.26147584962176       -1.29643468735375       -1.38386541027186
C            1.61093410484278        0.22756805738962       -1.11743038965400
O           -1.77643674516116        2.73238302224436        1.88306202869787
H            4.24374816709403        0.35515658145375       -0.89632859737387
H            3.81894820944340       -1.10727147535077        0.02276263014867
H            4.32910860498724        0.36429918107334        0.86484342886128
H            2.32306987986790        0.38416515818630        2.15613901729131
H            1.68380209797014       -1.05385815414887        1.35012561574247
H           -0.20421177117549        0.16392411826990        2.23600231762344
H            0.42604162179789        1.71371372643366        1.68438521465726
H           -0.24058588341734        0.81772976922452       -1.99779777468124
H            1.03834772661718        3.12252515807518       -1.39519305572315
H           -0.72113770478416        4.25092025147197       -0.20693112439360
H           -2.84794330781143        2.96899119202490        0.14617070451811
H           -2.26300760839358        0.99866047045455       -0.91653489950603
H            0.04230069531929       -3.90983601435748       -1.29357878153144
H           -2.12548480439408       -4.42850653089662       -0.30389327904605
H           -3.97562209426123       -3.67174812759440        0.76349439044085
H            1.14941904105413       -1.41652929150692       -2.46719893201962
H            2.11365461583598       -1.91246385008705       -1.08864687922072
H            2.21241708578901        0.57283125752814       -1.96652223549357
H           -1.69826540489921        3.68383522891101        2.02770207743472
40
 energy: -61.216330407860 gnorm: 0.009200491617 xtb: 6.6.1 (8d0f1dd)
C            3.74030010233666       -0.00454815433378        0.01074314708243
N            2.37932919909168        0.48248054005555        0.07717052355819
C            1.71008173129719        0.04625829208713        1.29020024945637
C            0.32471820952390        0.67747786972010        1.41189112393671
C           -0.46907536639671        0.49457343512806        0.11382782189484
C            0.29485548463490        1.03662335216870       -1.06614674453204
C            0.26897562621444        2.53026317011747       -0.90409148834272
C           -0.71429368851709        3.14759125321515       -0.25811061482618
C           -1.88441142277414        2.51804803910488        0.50049082058533
C           -1.88829730366653        1.04349068228374        0.12480411090484
O           -2.66741575441380        0.03999642499234        0.80800660892066
C           -2.06767935848272       -1.14696493422077        0.42061856409394
C           -0.79110865365154       -0.93148458382712       -0.07438058488053
C            0.01002989891633       -1.82951702975304       -0.72626372748857
C           -0.50525180422717       -3.12051977075185       -0.79588213776647
C           -1.74232150114673       -3.40332286699646       -0.23196789693705
C           -2.56689717240621       -2.44262944976246        0.36581499762566
O           -3.80714838802255       -2.73956386467738        0.84568237086354
C            1.26401592226534       -1.29229770585463       -1.38312215452586
C            1.60126651452601        0.22226648803053       -1.11940941807673
O           -1.75978462351917        2.72108752370177        1.89334023032754
H            4.21243004995843        0.36268572928938       -0.89991592372492
H            3.81919679296566       -1.10239201429322        0.03063125260179
H            4.29292748573597        0.38543043731883        0.86639885670631
H            2.32082741362655        0.37431128354789        2.13825275623565
H            1.63599537889186       -1.05447676439397        1.33657165897369
H           -0.21940085912188        0.19980756227127        2.22827286572494
H            0.42710276124960        1.73555193327502        1.64429508456960
H           -0.24913213491919        0.80360998569137       -1.99419237913167
H            1.05081947110077        3.10667198145814       -1.37693797609212
H           -0.70956783651354        4.22968653442243       -0.20187722038927
H           -2.82453156292492        2.98161604720708        0.15290353293904
H           -2.24356282839113        1.02041614724627       -0.92435871855751
H            0.03866389573154       -3.90972494708708       -1.29315261143158
H           -2.11461874538714       -4.41680902217396       -0.29738754940554
H           -3.97178198870076       -3.68524289865003        0.75229569902785
H            1.15134307594130       -1.41792882889266       -2.46429519472604
H            2.12621984231776       -1.89460633704012       -1.08764301450615
H            2.21392981225407        0.56283574704886       -1.96247417101015
H           -1.68674767539657        3.66924871332704        2.04939725032228
40
 energy: -61.216754268825 gnorm: 0.005261437635 xtb: 6.6.1 (8d0f1dd)
C            3.73177735288741        0.00559485180273        0.01502544729457
N            2.36754605525150        0.47762475067990        0.07607045923324
C            1.69658101210872        0.04281687412288        1.28665350495778
C            0.32096276067544        0.69141877957256        1.40581330511679
C           -0.47114492162471        0.49304921303232        0.10950599903435
C            0.29261176772907        1.03070633736371       -1.07301918471616
C            0.27540701173594        2.52265693737247       -0.90634573546690
C           -0.70235807183429        3.14283497589016       -0.25190993875286
C           -1.87543476064540        2.51551555713049        0.50580571770128
C           -1.89070258725350        1.04334251150985        0.11971097849424
O           -2.67032187542583        0.04080356914816        0.79747563111507
C           -2.06901320628638       -1.14666465164519        0.42193425986641
C           -0.78995913937174       -0.93530674069103       -0.07115224825034
C            0.01345969694760       -1.83051444257025       -0.72447147388889
C           -0.50047682782577       -3.12323933409643       -0.79271091222916
C           -1.73555315172489       -3.40315674706690       -0.22643096290860
C           -2.56507468737325       -2.44494851126710        0.36910816572046
O           -3.80403922333331       -2.74911609992457        0.84585544572227
C            1.26308039209552       -1.29339105157033       -1.38738618242874
C            1.59799662448768        0.21905270564576       -1.12358443832995
O           -1.74558443743437        2.70588531251784        1.89763191592203
H            4.19873433069515        0.37193092028046       -0.89805286858709
H            3.82408736791163       -1.09224765407993        0.04128348077187
H            4.27656199472512        0.40676529769773        0.86965275916898
H            2.31315414987672        0.35762464672744        2.13409232500465
H            1.60281911037695       -1.05750735206154        1.32890172973151
H           -0.22972378507479        0.23681943992689        2.23057758653871
H            0.43744166701437        1.75269540510845        1.61576202221560
H           -0.25556808160446        0.79754009643218       -1.99868299414731
H            1.06113470170291        3.09692325706146       -1.37527605369681
H           -0.68930870964748        4.22435430541492       -0.18594114467765
H           -2.81136308347743        2.99265193686328        0.16301191299246
H           -2.24472483523867        1.03392247277296       -0.93015032126966
H            0.04152035087530       -3.91267670209482       -1.29134564770624
H           -2.11066961434888       -4.41677559114386       -0.28822089008355
H           -3.96708200372738       -3.69442920073021        0.74496917896844
H            1.14742144150032       -1.42646933401213       -2.46733797363278
H            2.12877730635233       -1.89028965153387       -1.09095652024008
H            2.21398691870061        0.56217833840679       -1.96400776248930
H           -1.67695901039727        3.65202457200728        2.06814142793144
40
 energy: -61.216998682350 gnorm: 0.004281153181 xtb: 6.6.1 (8d0f1dd)
C            3.72626677098123        0.01930060001594        0.02124485158980
N            2.35653244487087        0.47262514183623        0.07619449237559
C            1.68208072464005        0.03363927217743        1.28253393679758
C            0.31793536060105        0.70376940320342        1.39649241119523
C           -0.47529786191476        0.49281729096415        0.10226539977436
C            0.28840211376342        1.02696169302804       -1.08280490280077
C            0.27938899818285        2.51878034445695       -0.91192703504631
C           -0.69012419317372        3.14233442187795       -0.24469745348758
C           -1.86663518889057        2.51446003353428        0.51100373403840
C           -1.89497910938635        1.04394126397944        0.11114617639801
O           -2.67552235700968        0.04241435925885        0.78505406256862
C           -2.07231681442898       -1.14569439526488        0.42004590849605
C           -0.79104370324513       -0.93748745030307       -0.07051386140362
C            0.01473694380535       -1.83178428516242       -0.72343054613470
C           -0.49636610089759       -3.12661166350252       -0.78850295390549
C           -1.73091936201502       -3.40525158881997       -0.21901901008979
C           -2.56363004014047       -2.44600981840044        0.37217755982696
O           -3.80033402208180       -2.75758412039947        0.84764142791158
C            1.26297335460382       -1.29817315624859       -1.38991676544794
C            1.59400367947576        0.21504912879520       -1.12855677416272
O           -1.73186783680684        2.68639297321526        1.90362702067067
H            4.18991459331754        0.38451337035856       -0.89392494754187
H            3.83447374206659       -1.07748783275625        0.05571078619147
H            4.26384784935646        0.43466914507105        0.87348025296854
H            2.30167535363343        0.33009059587019        2.13338647223569
H            1.56858607670885       -1.06517305390721        1.31640690692101
H           -0.24061910537264        0.28042423166923        2.23322149199548
H            0.45700075559787        1.76737473425831        1.58146375915563
H           -0.26105652721569        0.79494474619786       -2.00766386389941
H            1.06994465095687        3.08987042551063       -1.37724269283557
H           -0.66466246435800        4.22282289826869       -0.16561346236528
H           -2.79850188565692        3.00493616120555        0.17608382962522
H           -2.25168804845302        1.04764400147336       -0.93751405299345
H            0.04670998555219       -3.91681895817652       -1.28494697625654
H           -2.10653259032147       -4.42005524019941       -0.27420949221082
H           -3.96083047611371       -3.70281565414592        0.73808371946160
H            1.14422549563299       -1.43548246146859       -2.46914660053792
H            2.13013196303559       -1.89332529479192       -1.09382272609524
H            2.21301509546882        0.56009479012366       -1.96658386702947
H           -1.66891826476875        3.62988394719742        2.09277378404706
40
 energy: -61.217063251891 gnorm: 0.003080130599 xtb: 6.6.1 (8d0f1dd)
C            3.72660307320679        0.02675609897331        0.02460541524541
N            2.35403096860050        0.47139822446773        0.07729240291985
C            1.67612114485246        0.02559513497244        1.27961954355424
C            0.31750149783932        0.70585682312681        1.39109264425362
C           -0.47754389895585        0.49346267155676        0.09780946503223
C            0.28757400869655        1.02673477047676       -1.08702319118799
C            0.28062717904177        2.51895603175767       -0.91346390400650
C           -0.68536632892414        3.14306950442005       -0.24105704550247
C           -1.86382882825183        2.51493156566922        0.51296415948779
C           -1.89671047890395        1.04526129582667        0.10710509479103
O           -2.67856837795645        0.04375465649838        0.77987834440477
C           -2.07476465049302       -1.14469979920607        0.41705766288455
C           -0.79330654890162       -0.93676214696123       -0.07301876783187
C            0.01309408479875       -1.83229695010080       -0.72357785794654
C           -0.49543624698422       -3.12824860770074       -0.78433106907715
C           -1.73037753250844       -3.40699295647421       -0.21431290769371
C           -2.56373278360804       -2.44551189544924        0.37313228091536
O           -3.79942496084464       -2.75918082856454        0.84964785464121
C            1.26142365299179       -1.29997067582714       -1.39092308932146
C            1.59408274854432        0.21359508315408       -1.13035915106916
O           -1.72859049367792        2.67745844829905        1.90669164628180
H            4.18980934631703        0.39184417032834       -0.89105538774110
H            3.84218445280553       -1.06873851939081        0.06312676562983
H            4.26097176554259        0.44931650463911        0.87550640957684
H            2.29442688251396        0.31138589570929        2.13493501541912
H            1.55575592574229       -1.07195033548808        1.30548397738806
H           -0.24445015447398        0.29682286127720        2.23204573643024
H            0.46977281030408        1.76867851369039        1.56692726896992
H           -0.25994248134816        0.79628859453166       -2.01310514331197
H            1.07069496698521        3.08910653255179       -1.38090211160934
H           -0.65606431774728        4.22300786516402       -0.15851902752178
H           -2.79394419593925        3.00989399055566        0.18141639554792
H           -2.25566280749695        1.05312577437251       -0.94039409403135
H            0.04954336078434       -3.91905520811680       -1.27797069399895
H           -2.10438400266374       -4.42261727713877       -0.26545719261858
H           -3.95850211990743       -3.70438253076465        0.73720715140447
H            1.14225067320158       -1.43812809725650       -2.47015685488253
H            2.12833572280614       -1.89531792179213       -1.09443495576182
H            2.21435251168953        0.55827827636504       -1.96741312257774
H           -1.66855556767709        3.61927446184825        2.10393033291384
40
 energy: -61.217093287518 gnorm: 0.001394126875 xtb: 6.6.1 (8d0f1dd)
C            3.72803824211989        0.03151675149743        0.02691885333804
N            2.35344097148493        0.47040239203711        0.07843132675023
C            1.67247279433970        0.01721441741317        1.27688577060444
C            0.31751681702212        0.70430909515814        1.38744252436975
C           -0.47878728831357        0.49436073704845        0.09411024063156
C            0.28780912855707        1.02846251989136       -1.08927614810371
C            0.28020030347341        2.52100598471029       -0.91452339622721
C           -0.68432313935896        3.14437664659374       -0.23989953258878
C           -1.86268575802665        2.51581815164315        0.51425159450307
C           -1.89706381391054        1.04718549628923        0.10465571596831
O           -2.67993991533919        0.04512072914295        0.77716182845452
C           -2.07626098321244       -1.14363606148379        0.41371163822483
C           -0.79540851619809       -0.93513130844921       -0.07706209568717
C            0.01150039487779       -1.83263588145090       -0.72412860467044
C           -0.49521645607542       -3.12916214549009       -0.78052036279513
C           -1.73041359524154       -3.40806234600441       -0.21037120520258
C           -2.56396349737718       -2.44457064180206        0.37368178736400
O           -3.79944577722459       -2.75802782385083        0.85184837878505
C            1.26085232676529       -1.30086335178258       -1.39078901868686
C            1.59439255875635        0.21304721716288       -1.13065185085073
O           -1.72749134359217        2.67249699622414        1.90884650140542
H            4.19095878090050        0.39724677714808       -0.88883453748951
H            3.84880050397571       -1.06268694074846        0.06787654117772
H            4.26016243069447        0.45905606033233        0.87694427225216
H            2.28891863113734        0.29460920079763        2.13647069493366
H            1.54883658593483       -1.07933746354293        1.29389013836186
H           -0.24666770408948        0.30277109122767        2.22934064390635
H            0.47878361207051        1.76583631250892        1.55899863984688
H           -0.25667278297988        0.79938510353274       -2.01729738069669
H            1.06912256060934        3.09133844894832       -1.38381227194720
H           -0.65426215171214        4.22401789667013       -0.15635947322783
H           -2.79195688124010        3.01252922303276        0.18467434505281
H           -2.25746156555591        1.05616586092471       -0.94206248024566
H            0.05203901567076       -3.92098384990854       -1.27014275439652
H           -2.10217877946416       -4.42436066510809       -0.25792092136373
H           -3.95788125429059       -3.70316955160958        0.73901244523876
H            1.14179279485701       -1.43766505312616       -2.47021960126626
H            2.12714930262828       -1.89733571563546       -1.09452545826554
H            2.21566304158944        0.55622998008418       -1.96708628445587
H           -1.67036959426162        3.61312570997406        2.11032949699807
40
 energy: -61.217102158224 gnorm: 0.001040686740 xtb: 6.6.1 (8d0f1dd)
C            3.72926752256062        0.03383075343319        0.02852823157744
N            2.35359917064514        0.46956506756012        0.07951213002010
C            1.67035346799985        0.01046079379761        1.27482217124063
C            0.31713426408533        0.70088925919933        1.38564059257800
C           -0.47939937353034        0.49498497134249        0.09131226915129
C            0.28909392560089        1.03026841775637       -1.08992996123520
C            0.28046682712868        2.52279848731157       -0.91389881027893
C           -0.68439481155798        3.14515031885470       -0.23943130775218
C           -1.86234536369391        2.51641355699515        0.51475188879061
C           -1.89686070758040        1.04893089689307        0.10330929205631
O           -2.68037038741390        0.04615045877041        0.77577948871034
C           -2.07699994123078       -1.14274761719031        0.41070984845845
C           -0.79716999295282       -0.93352096417477       -0.08177162332955
C            0.01065100749249       -1.83271117009988       -0.72516763468697
C           -0.49471446571873       -3.12968320610004       -0.77707306381076
C           -1.72996626519488       -3.40835825777939       -0.20692458636557
C           -2.56414364023532       -2.44382811549937        0.37417353400037
O           -3.79984835219770       -2.75563494621592        0.85412715535140
C            1.26030715505849       -1.29990947473211       -1.39158245933879
C            1.59557642758835        0.21364288470109       -1.13045003915455
O           -1.72644754903654        2.67064919537094        1.90960306733180
H            4.19157705560312        0.40079816724042       -0.88710050815066
H            3.85313909419145       -1.05956115909528        0.07004712929317
H            4.25968923631819        0.46374586414306        0.87845878435762
H            2.28542041874953        0.28176338653665        2.13738324070847
H            1.54490668727398       -1.08556436267915        1.28414030737568
H           -0.24888246803895        0.30084577628366        2.22633508889871
H            0.48243899223760        1.76160542447568        1.55656880295500
H           -0.25314991144949        0.80257882686372       -2.01971498375078
H            1.06724093982407        3.09422419670179       -1.38547272363485
H           -0.65653965339237        4.22501033206542       -0.15801956382634
H           -2.79158827338637        3.01369135150104        0.18625311954925
H           -2.25759172724092        1.05775281416299       -0.94326807835809
H            0.05422795285203       -3.92271712475141       -1.26286247191315
H           -2.09966985822105       -4.42524400844699       -0.25136540608758
H           -3.95824112950841       -3.70087483187488        0.74343900315312
H            1.14126740840167       -1.43517990892245       -2.47118306282854
H            2.12651787000819       -1.89688882242708       -1.09590805204730
H            2.21778945657328        0.55580519772447       -1.96630405426708
H           -1.67234100861158        3.61086757030457        2.11253324525921
40
 energy: -61.217105394905 gnorm: 0.000556449826 xtb: 6.6.1 (8d0f1dd)
C            3.72881657430926        0.03342060001939        0.02884932315120
N            2.35307882885770        0.46892094761165        0.07969474729161
C            1.66974575370164        0.00944577800668        1.27461203450650
C            0.31634711484847        0.69953784430211        1.38581040858445
C           -0.47937547019558        0.49509489033533        0.09059330570402
C            0.28953638504629        1.03102474565115       -1.08993975049277
C            0.28053612798125        2.52340037913585       -0.91423830779268
C           -0.68504107297154        3.14562697293088       -0.24055433314293
C           -1.86217464530974        2.51658898455257        0.51449516289184
C           -1.89672912079352        1.04936757538075        0.10291368030999
O           -2.68005231996911        0.04637932025150        0.77522517150019
C           -2.07672313754611       -1.14248591059321        0.40999499534639
C           -0.79726054473236       -0.93328097290361       -0.08335211758581
C            0.01126517330668       -1.83258595621334       -0.72584617756468
C           -0.49394925067844       -3.12971191721820       -0.77649863289286
C           -1.72902221589801       -3.40808740670753       -0.20591576860603
C           -2.56376784275105       -2.44378164138979        0.37446362781279
O           -3.79943920135502       -2.75486692591402        0.85497098795019
C            1.26068940494358       -1.29940426545711       -1.39254829616168
C            1.59545821720520        0.21401915673555       -1.13028066642072
O           -1.72508379640607        2.67116732307354        1.90917920265049
H            4.19094041437448        0.40110666038310       -0.88649922040255
H            3.85285009448243       -1.06010869879293        0.06948525991682
H            4.25887833835453        0.46263883929112        0.87927143028065
H            2.28492411923395        0.28004689522024        2.13709283878039
H            1.54391389307366       -1.08661053514513        1.28314491608660
H           -0.25011066204172        0.29727015756981        2.22542193936407
H            0.48035938134169        1.76026291569628        1.55867229968837
H           -0.25262826250079        0.80360235088728       -2.01994258868581
H            1.06790411036294        3.09523803146323       -1.38434184822305
H           -0.65732781360395        4.22560981709856       -0.15873960284711
H           -2.79185846150883        3.01384379656943        0.18662666969962
H           -2.25736083578510        1.05834740039368       -0.94378932371288
H            0.05513968016304       -3.92334849099734       -1.26107896984928
H           -2.09830832776080       -4.42524316126963       -0.24922108591592
H           -3.95791401200622       -3.70035880968124        0.74635385790153
H            1.14089040838727       -1.43370466477310       -2.47214503621642
H            2.12716994703245       -1.89656353228977       -1.09801289121047
H            2.21801604758648        0.55653075923483       -1.96581681910008
H           -1.67233302077853        3.61165074755193        2.11188957740608
