113
 energy: -186.455699819938 gnorm: 0.151238033271 xtb: 6.6.1 (8d0f1dd)
C            1.95721171487169       -0.99518127065670        2.31552443168064
C            0.88233310574334        0.05031625936205        2.16085505768862
C           -0.34552677998776       -0.00890079565872        2.75601283388855
C           -1.00324577399144       -1.38390005166062        2.86672962437168
C           -1.35763011256727       -1.76255927700392        1.39045088466378
O           -0.43957574524937       -2.12964519518123        0.63860240566090
C           -2.81678073592091       -1.72570973058027        0.85507530490956
C           -3.45013690388566       -2.93057456818341        1.61071011387963
C           -2.74796572262839       -2.04396168946847       -0.67324318314617
C           -3.96770422161746       -1.73077897975522       -1.54188868100103
C           -5.17245432105003       -1.19096936081109       -0.80146450470926
C           -5.02250866742484       -0.36573778239667        0.50444256616616
C           -6.08203657060816       -1.38527178473919        1.03591141198823
O           -5.90228909813479       -2.23733941520326       -0.11716590393427
C           -3.55656410585000       -0.36473038035413        1.12091452602621
C           -2.85559086066037        1.00659724596849        0.70636146803886
C           -1.49618224091592        1.60956518377560        1.29268261069690
C           -0.29145262012421        1.30664217681264        0.34249999073891
C            1.07876211877467        1.06321323350224        1.02681948604922
O            1.96424421332401        0.47579104100756        0.04257720117375
C            2.45434358082011        1.30393745907683       -0.92032475763421
O            2.22267028127418        2.50168532595534       -0.99026563897593
C            3.34040091942393        0.53492687779669       -1.89889000726940
C            4.73951784047906        0.32481259777475       -1.25445883774381
C            5.59693916342012        1.56747010191860       -1.41607160520402
C            5.69754679627008        2.49179630070500       -0.36615132040082
C            6.46993259244466        3.64646584733155       -0.50798306150822
C            7.13573104271279        3.89718891425020       -1.70554262707390
C            7.04051470456723        2.99218302790608       -2.75901636179796
C            6.27266233656948        1.83488149998750       -2.61780113486368
N            5.33153145860573       -0.88717753872811       -1.87409877776903
C            6.35977834893986       -1.46329858775994       -1.36883795513980
C            6.92510305180250       -2.72583405587522       -1.90201239394884
C            6.60804004083669       -3.11490682982051       -3.21181478401236
C            7.12203846069422       -4.30324396725544       -3.73406713653096
C            7.94760056713135       -5.10983528131334       -2.95263538692265
C            8.26486537561324       -4.73081293126114       -1.64694871327503
C            7.75758203714773       -3.54035606169737       -1.12179780482692
O            7.07227978046156       -1.01042361735863       -0.33055604643183
O            2.75772960058580       -0.72788201037501       -2.27118912701511
C           -1.16952445821133        1.28665500712166        2.78807264168591
C           -2.39042303505374        1.36762659487032        3.74454248381450
C           -0.27489072143270        2.41000925116388        3.45874802120119
O           -1.63095651639379        3.05956117033140        1.24496832166334
O           -2.79962003334445        1.01586793128249       -0.74959991881022
C           -3.13682048727287        2.17129326038980       -1.37840437797003
O           -3.44782211790313        3.21844732932423       -0.83151719475486
C           -3.14843661192364        1.96157803342429       -2.83917756263558
C           -4.20042951534138        2.49968918089782       -3.58886802836042
C           -4.25579318364571        2.27764177973178       -4.96465421141430
C           -3.25599224263474        1.53198339025409       -5.59167276354540
C           -2.19484052185242        1.01305744329672       -4.84708746655573
C           -2.13758980818256        1.22231453135688       -3.46811881406689
O           -5.56452078049914        0.98421586484408        0.36461247469909
C           -6.07463122291363        1.55748951234315        1.49365039369382
O           -6.05279765132582        1.05049397480527        2.60468840320277
C           -6.62663537072313        2.91291259455317        1.17883626363507
O           -2.46681385707749       -3.43821101755557       -0.85736971110925
O           -2.07157710808062       -1.42465965071988        3.79276359628851
C           -1.73784255814919       -1.76626468898760        5.06682519392773
O           -0.60652294779901       -1.99840595450129        5.47098323047311
C           -2.96758044308651       -1.81593096313303        5.92393477999857
H            2.92679490097379       -0.50319084720620        2.44581219128345
H            1.80684872653429       -1.60684764195866        3.20854560377561
H            2.01194646866425       -1.65298028765327        1.44619188447280
H           -0.27483241095002       -2.15400125244373        3.15506983925010
H           -3.83133140293728       -2.64150546086695        2.59474295608734
H           -2.71684497214796       -3.73175579432638        1.78775963576737
H           -4.26314051472058       -3.40781605509442        1.05923771303149
H           -1.91052213226622       -1.49003515206181       -1.11755481385319
H           -4.26569793401619       -2.60044038994806       -2.14046100891647
H           -3.67766909507177       -0.98113655838506       -2.28376042200262
H           -5.84993776913165       -0.71624335341975       -1.52706372364207
H           -5.85976240029396       -1.89104268457548        1.97862021996201
H           -7.11153410051665       -1.01714826721630        1.07660410288161
H           -3.73185289011686       -0.32924031908521        2.18651144365655
H           -3.57655594731165        1.76702236388821        1.01550847470554
H           -0.50663136507893        0.40684688365583       -0.24876508875751
H           -0.19004628800035        2.10928448509225       -0.39696460456641
H            1.55885629748669        1.97236712344994        1.39466390160046
H            3.40706845543109        1.11107435448665       -2.83163911163007
H            4.60948093542735        0.10974724402552       -0.18415129905500
H            5.16607952357984        2.33586702287846        0.57095859616899
H            6.52309006040100        4.36654810678561        0.30335182126633
H            7.72374575646293        4.80385836256523       -1.81985579049705
H            7.55118863408959        3.19285289880995       -3.69882667136049
H            6.19959890915991        1.14393229588968       -3.45637455399334
H            5.96521487876489       -2.49029142678172       -3.82828311591964
H            6.87883244649060       -4.59569211847187       -4.75297222484659
H            8.35050789773886       -6.03355991768059       -3.36235036127921
H            8.90747494191518       -5.36211864413575       -1.03949593860808
H            8.00579210324986       -3.26241796376781       -0.09964487912055
H            6.85796165277045       -0.09354494109955       -0.10857914858563
H            3.48916807657296       -1.37477355970074       -2.18154185545073
H           -2.07104926088710        1.25959914220034        4.78825814630521
H           -2.88709828314416        2.34095037113380        3.65936185198898
H           -3.16722380298528        0.62887884726891        3.60975012371397
H           -0.85237500729893        3.32562167101592        3.64236944046855
H            0.58816328372588        2.72703731636038        2.88155152586110
H            0.09278343759886        2.06914822556612        4.43416026741964
H           -2.19777722840618        3.33073605364538        0.49537753761336
H           -4.97768439764254        3.08412504138975       -3.09977675653691
H           -5.08045894002277        2.68049494523626       -5.54615520412663
H           -3.29928610146114        1.36054348358132       -6.66537573159518
H           -1.41225918516471        0.44046578891261       -5.34236310962259
H           -1.30809717026472        0.81190728296802       -2.89664103390705
H           -7.18355283215295        2.88872145603473        0.23358936202910
H           -5.80934953956913        3.63529754593039        1.11691944224752
H           -7.32587268012936        3.21188794040911        1.96679066932718
H           -1.77389052184912       -3.50918641521550       -1.54785398403094
H           -3.73822253920157       -2.41749079756437        5.43788304844036
H           -2.72211415981576       -2.28469937694512        6.88162849497269
H           -3.32757997353818       -0.80346353270309        6.10713221605265
113
 energy: -186.484300365965 gnorm: 0.055315764643 xtb: 6.6.1 (8d0f1dd)
C            1.94240817886206       -0.99928081319105        2.30415646239633
C            0.85904140124881        0.02461463431848        2.12125920097477
C           -0.35993444076822       -0.01236201972649        2.71701402147787
C           -1.00795469875908       -1.37901294918839        2.87040457614158
C           -1.37619538907011       -1.73250793239589        1.39517480554678
O           -0.47069602392132       -2.10798760321782        0.68527042764592
C           -2.82160552422666       -1.71677350781820        0.84516649515586
C           -3.45017822511896       -2.91552213509652        1.60665090126414
C           -2.73226574782091       -2.04771887192221       -0.67805049999958
C           -3.95948211568093       -1.69979451708958       -1.53925993584632
C           -5.17780227104904       -1.19067052921665       -0.80692737128764
C           -5.00689072295373       -0.37303815414273        0.49296282187393
C           -6.05440792350127       -1.37567172094401        1.05053957351770
O           -5.90333837242434       -2.21499713881744       -0.10010912626211
C           -3.55601204993489       -0.36378905323382        1.12414279880282
C           -2.85077073118193        0.99998881025435        0.71879205114774
C           -1.49450255685584        1.62436599038564        1.28853441654348
C           -0.29247746582693        1.29276442556217        0.35296597996715
C            1.07780063147794        1.06816937901891        1.03122986701687
O            1.96998576277116        0.48690216214924        0.05368500933638
C            2.45272434248091        1.28722663367484       -0.91360596691915
O            2.23898299334230        2.47128239048771       -0.98501537207546
C            3.34910110581449        0.52237828117556       -1.89132562221224
C            4.75674241199928        0.31536227916639       -1.25666355663278
C            5.60012757649412        1.56770734026340       -1.41722848454807
C            5.69991542112040        2.48829633656456       -0.37413559338455
C            6.45972587607026        3.64118555828314       -0.51753058513947
C            7.12904757069380        3.88957786352932       -1.70538827812203
C            7.03143422568125        2.98597437019216       -2.75193243758466
C            6.26903640388257        1.83492364144598       -2.61126379107834
N            5.33790009709796       -0.89256156670453       -1.86602378706124
C            6.36762802400525       -1.45332782397444       -1.37172671602067
C            6.90829396303031       -2.72536001959659       -1.90707095330670
C            6.60133008749401       -3.11883047326850       -3.21051065569846
C            7.12052456143906       -4.29626111897052       -3.72800046845192
C            7.94372796935981       -5.09765906682305       -2.95025290772161
C            8.25406857171559       -4.71568436466842       -1.65271242947902
C            7.74456087890856       -3.53401004249622       -1.13206814007736
O            7.08353242641816       -0.99557299549617       -0.32886661457685
O            2.75779468815932       -0.72027167663517       -2.24252015731400
C           -1.16613797287318        1.28766966590518        2.78095981628108
C           -2.39076763698496        1.34643326219085        3.72566525511814
C           -0.27172635071430        2.39789839566256        3.43558925058015
O           -1.66736225771532        3.05249650738030        1.27408453707323
O           -2.79314732927371        1.02233521030135       -0.72908846679122
C           -3.15142931535112        2.14989789966230       -1.37475083292350
O           -3.44961508192152        3.19168187237030       -0.83343803922793
C           -3.15280934031711        1.94855508547938       -2.84119932592027
C           -4.19300690465908        2.49487215298889       -3.59251899315347
C           -4.24856087821360        2.27409460449170       -4.95979326298828
C           -3.25404310426981        1.53385097055187       -5.58403235976037
C           -2.20055922649558        1.01579420162229       -4.84263080559804
C           -2.14823570947533        1.21429118693101       -3.47104297386154
O           -5.55747910935969        0.95945919428146        0.37188197420577
C           -6.05973369371684        1.54574002158225        1.48684168377675
O           -6.03872899962947        1.04058518915605        2.57966742203303
C           -6.62849093401474        2.90054762503941        1.17668574760857
O           -2.44520434798620       -3.43820840091381       -0.83774181761432
O           -2.07662545197806       -1.44499087376107        3.79484932451000
C           -1.74360767556947       -1.76962836784186        5.06256487912150
O           -0.62276484757445       -1.99299835241436        5.44149042582514
C           -2.96798556077773       -1.82171351350004        5.92924712704692
H            2.90414407425239       -0.49256037581761        2.42399283609784
H            1.78393294105919       -1.59938572766283        3.19987991135071
H            2.01051879167611       -1.65549963768522        1.43943135146462
H           -0.26115956882027       -2.13167314813021        3.16128889954778
H           -3.82189398210727       -2.61999607652887        2.58759086524555
H           -2.70547159831790       -3.70193609589399        1.76416985874809
H           -4.25606301671072       -3.37482383607898        1.03636911557114
H           -1.89143847787656       -1.47586524718398       -1.08636816596317
H           -4.26386464828358       -2.59370548750921       -2.09679457439261
H           -3.67524431455573       -0.95328088512660       -2.28512303335257
H           -5.85498850891347       -0.69652424892917       -1.51711646665322
H           -5.83994697826821       -1.88774509488746        1.98706418154408
H           -7.07585850708905       -0.98152452968984        1.08449877298476
H           -3.71833476268471       -0.31882491286550        2.19876025836410
H           -3.58091698562492        1.76114667215669        1.01792720361037
H           -0.49996819372278        0.38725243502429       -0.22752361462436
H           -0.18873705939167        2.11148644786315       -0.36689962006286
H            1.54179022854973        1.99694674147309        1.37705922568540
H            3.42498796776881        1.11891122922560       -2.81231396202536
H            4.60146450415237        0.11476446579339       -0.18501769207510
H            5.17226266772981        2.32412147486919        0.55840816062279
H            6.52186795818985        4.35163699017151        0.29654202499196
H            7.71806872472690        4.79108894940218       -1.81790521619171
H            7.54282929979249        3.18305423051051       -3.68598715312948
H            6.19617320439011        1.14041451493213       -3.43908686985789
H            5.96512436237508       -2.49253591756418       -3.81965181717750
H            6.87999944336264       -4.59065754646225       -4.74151111711410
H            8.34406221400154       -6.01968146260404       -3.35484443894562
H            8.89447393525966       -5.34355925647297       -1.04547374823107
H            7.99431472777103       -3.25125296458476       -0.11742410804398
H            6.84492241067441       -0.08749876903739       -0.09598281897820
H            3.48438189913927       -1.37014359699850       -2.19068898859452
H           -2.05408593758497        1.25245620318913        4.76123704257908
H           -2.86418937933734        2.32628325952207        3.63380025025268
H           -3.16630735263762        0.60584427336735        3.58096289595036
H           -0.86210012999665        3.29767879366241        3.61506133377737
H            0.58594424239991        2.70715968289369        2.85317265136613
H            0.08591373491504        2.04225124209355        4.40424011799718
H           -2.20267324349451        3.32517277613266        0.50787535752497
H           -4.96379784566618        3.07466973262787       -3.10081915128513
H           -5.06868081912425        2.67796795428419       -5.53896231462080
H           -3.29774674033812        1.36319805352111       -6.65246458886253
H           -1.42023237340978        0.44908442834235       -5.33463581327354
H           -1.32061499621816        0.81556689936682       -2.89934673961693
H           -7.16591932381138        2.88367023478145        0.22886619508976
H           -5.81591740108256        3.62280058999973        1.10760803228687
H           -7.31120888460342        3.20620757697074        1.97008764580243
H           -1.76725071415189       -3.52468964222135       -1.52151504746016
H           -3.74334893875984       -2.40658361590333        5.43910108444283
H           -2.71840042749138       -2.28000700697880        6.88486362578282
H           -3.33371540371832       -0.81159830836317        6.10054763849373
113
 energy: -186.493973687054 gnorm: 0.025171693242 xtb: 6.6.1 (8d0f1dd)
C            1.92130612786503       -1.00795398717731        2.27775502456745
C            0.83831205535701        0.00901402907438        2.09618693905896
C           -0.37144437253066       -0.01826749365935        2.69643613181464
C           -1.01748970316306       -1.37318212698443        2.87623895944373
C           -1.37740267411020       -1.73483172705570        1.40380070162347
O           -0.47059658523165       -2.09199240601934        0.70719479710850
C           -2.81270406186412       -1.69720160926673        0.85087788648143
C           -3.44784656625682       -2.89654542986526        1.59648944799909
C           -2.71110385697568       -2.03044224136894       -0.66881533055287
C           -3.94450974656456       -1.67708750449124       -1.53043277670233
C           -5.16504544898229       -1.17989062372703       -0.79583970109933
C           -4.98933368286698       -0.36351113874314        0.49892680374089
C           -6.01990935837269       -1.36527034585660        1.06472134853222
O           -5.89086483383535       -2.19336134071062       -0.08782697903212
C           -3.54903130925352       -0.35733038159586        1.12233375006003
C           -2.85351626270121        0.99969414088210        0.72069785368754
C           -1.50203150117149        1.63286269221950        1.28390336504896
C           -0.30299374854800        1.29956197181211        0.35040042790889
C            1.06249433751171        1.06721376553898        1.03180933107818
O            1.96781095995621        0.49272550172338        0.06357914530036
C            2.46147345395401        1.27808288573154       -0.89186903725276
O            2.25255110826197        2.45816014110928       -0.97526945846811
C            3.35097591724515        0.50713787798263       -1.87750822160753
C            4.76365671770074        0.30444502297173       -1.24627860650912
C            5.59967513865250        1.55887129406035       -1.41259754954306
C            5.69886154845310        2.47837088493066       -0.37442068114918
C            6.45074439987047        3.63083661800084       -0.52108465419863
C            7.11912797022530        3.87902628542543       -1.70632110225464
C            7.01998633673532        2.97372059943899       -2.74824378481220
C            6.26313065049451        1.82394781326725       -2.60482771414559
N            5.33602917923898       -0.89421461612110       -1.84921047397753
C            6.37325677181058       -1.44093087503996       -1.36875342114683
C            6.89801313403806       -2.71256057748938       -1.91354956541481
C            6.59016199348886       -3.11187968100130       -3.21151379706568
C            7.10924049464733       -4.28632346458338       -3.72376481568743
C            7.93361355148508       -5.08392833610661       -2.94748607881904
C            8.24018972766582       -4.69776277009545       -1.65420329767936
C            7.73319339476638       -3.51825655939127       -1.13944972776738
O            7.10172829821295       -0.97533231956534       -0.33118843186140
O            2.75722509612771       -0.71979824335317       -2.20993936883162
C           -1.16637335623829        1.27632040076166        2.76679095601594
C           -2.38678231403922        1.32586720529533        3.70497195659903
C           -0.27256341599683        2.37358245580493        3.40911034213604
O           -1.69983766376584        3.03806986611291        1.29309599155079
O           -2.78773686146233        1.01927748850617       -0.71960854192157
C           -3.15817313021863        2.12703403475418       -1.37248851215382
O           -3.46660462931079        3.16317814142923       -0.83217182213386
C           -3.16105978158422        1.92634028697468       -2.84062234912122
C           -4.19340463881701        2.48185466964396       -3.59119343280900
C           -4.24364422229195        2.27215802444577       -4.95618801732878
C           -3.25213332971837        1.53379487900878       -5.58035543683672
C           -2.20316327161873        1.01348350406049       -4.84062148975184
C           -2.15659662567059        1.20029237314666       -3.47164791578757
O           -5.54375429871510        0.95147042871803        0.37211037575652
C           -6.04596749202065        1.53559891018861        1.47934412665844
O           -6.01142506764801        1.03007689208221        2.56623659664878
C           -6.62275987256569        2.88919522298720        1.16902425498711
O           -2.43215218294745       -3.41613594919226       -0.80695615710642
O           -2.08650508799314       -1.45981294615786        3.79914807645941
C           -1.75124088400958       -1.77591216870251        5.06134288690892
O           -0.62892184900690       -1.98863555617196        5.42226933671972
C           -2.97363343578006       -1.82632033106578        5.93469024799519
H            2.87346486124920       -0.48465967174389        2.38886365428195
H            1.75808666130608       -1.59636024639266        3.17733686485488
H            2.00066998068874       -1.66783193505653        1.41824981704075
H           -0.25461822555815       -2.10800162814578        3.16896561015161
H           -3.80770339657314       -2.59929926214697        2.57700901039890
H           -2.69849147392363       -3.67635663712044        1.73172130605069
H           -4.25297173342766       -3.33119618809755        1.01004357783957
H           -1.86601554465187       -1.45381301999660       -1.05909096902972
H           -4.25039638787193       -2.58664790267073       -2.06064509735173
H           -3.66603141952112       -0.93048869875021       -2.27534963950577
H           -5.83995504846719       -0.67139939135352       -1.49806450196145
H           -5.80994150520447       -1.87934488052654        1.99811662353695
H           -7.02958054935437       -0.93735546792366        1.10286037093074
H           -3.70751388281223       -0.31129600095795        2.20005817340809
H           -3.58878635789231        1.76020895976542        1.01940022516466
H           -0.50766096975359        0.38446908806650       -0.21001104206279
H           -0.19479166293782        2.12107804977751       -0.36334916556404
H            1.51636277983824        2.00914395576936        1.35958158594019
H            3.43891573145857        1.12540070438593       -2.78600031613539
H            4.59836837911353        0.11543178904595       -0.17255264946736
H            5.17496750950688        2.30536605880997        0.55538416933140
H            6.51550433410202        4.33711528146433        0.29324312308476
H            7.70994410804794        4.77639365494709       -1.81838062041396
H            7.53292472989545        3.16687024877453       -3.67874828438189
H            6.18914091228520        1.12389009860947       -3.42358245679695
H            5.95260473654056       -2.48571094313141       -3.81328000032435
H            6.87403545535592       -4.58156321828162       -4.73526217845350
H            8.33719056859981       -6.00223513049796       -3.34966543298646
H            8.88187073643757       -5.31993697590737       -1.04663592167305
H            7.98037157422704       -3.22857678897711       -0.12990220332054
H            6.82855447239459       -0.08036894243255       -0.08055810493036
H            3.48298570819362       -1.37116940090812       -2.20922062895194
H           -2.03985538266964        1.23775849823011        4.73419854886526
H           -2.85144651711924        2.30533065675891        3.59997713375483
H           -3.15334938016727        0.57981372364157        3.55386861753848
H           -0.86781659189069        3.26585582112311        3.58132426857529
H            0.57738921911614        2.67370926299465        2.81581249441566
H            0.08792370302640        2.01067385684117        4.37017321255859
H           -2.20579817744000        3.31876052646709        0.51227161302753
H           -4.95458210984000        3.06436341953927       -3.09515539916897
H           -5.05795259098903        2.68250306121637       -5.53418783239551
H           -3.29442566154945        1.36750347584688       -6.64626038923437
H           -1.42165357619326        0.45391198557043       -5.33092644754979
H           -1.33395281904389        0.80509255372295       -2.89624175309291
H           -7.15010537080330        2.87290266101763        0.22046697736147
H           -5.81077362161204        3.61031384795851        1.09251655900312
H           -7.29043776174367        3.19287076155789        1.97121990933431
H           -1.76248022182931       -3.52848195903401       -1.48515503132622
H           -3.75420876431524       -2.40011348863319        5.44373575728511
H           -2.71844832876759       -2.27526521173117        6.88928289589115
H           -3.34203236738225       -0.81585256901598        6.09530515508558
113
 energy: -186.497520819382 gnorm: 0.013309444552 xtb: 6.6.1 (8d0f1dd)
C            1.90151297649056       -1.01804002444558        2.24458005333336
C            0.82205947349210        0.00208326731590        2.07775370668914
C           -0.38278510370515       -0.02447965304144        2.68422569424812
C           -1.02391946265268       -1.37491313935839        2.88206886023774
C           -1.37180665015246       -1.72318754357917        1.40552293203991
O           -0.46221344942330       -2.10349900772697        0.71910157947824
C           -2.80162716729801       -1.67848124324805        0.85442891382688
C           -3.44344326671107       -2.87933859154744        1.58824160530819
C           -2.68938970234090       -2.01208075578450       -0.66198803966387
C           -3.92648993202954       -1.66392269106784       -1.52316681363369
C           -5.14744631875139       -1.16866398594120       -0.78604787935895
C           -4.96450174814923       -0.35354915914636        0.50601117684218
C           -5.99197624420678       -1.35009910419635        1.07698725623674
O           -5.87675443849996       -2.17578902898445       -0.07664731543018
C           -3.53354914470444       -0.34664041666406        1.13208495600876
C           -2.85090056127513        1.00213678321634        0.71939686325178
C           -1.50775634714740        1.64232897664880        1.27976790543051
C           -0.31429985569858        1.30688261363032        0.34123800193052
C            1.04850424412493        1.06803493014832        1.02714941567239
O            1.95516802108904        0.49312469183568        0.06180441295779
C            2.45491991581270        1.27476878223566       -0.88432382430304
O            2.26767334411642        2.46183978689018       -0.96370763513623
C            3.34720988084087        0.49756675624667       -1.86348716399528
C            4.75776817322462        0.29535744033782       -1.22554461626646
C            5.59365381913605        1.54572547006279       -1.39987325733297
C            5.69461523990693        2.46684270636821       -0.36455646572339
C            6.44313932872287        3.61986014213480       -0.51776934830136
C            7.10811008231841        3.86468858831860       -1.70612864338934
C            7.00864347965032        2.95458786384286       -2.74446081264364
C            6.25372022837267        1.80461754687316       -2.59540490030237
N            5.32648921566596       -0.89504034964129       -1.82847407595578
C            6.37675610901652       -1.42856996788589       -1.36328866568227
C            6.89349848172815       -2.69501622213644       -1.91664648419434
C            6.57583359884718       -3.09719135462160       -3.21135631695809
C            7.09411983836040       -4.27211952544311       -3.72212052636128
C            7.92243786913109       -5.06749544932309       -2.94651502271930
C            8.23130311554591       -4.67956129680670       -1.65402473454508
C            7.72765761767385       -3.49885233856370       -1.14190871326789
O            7.11868376136120       -0.95417664143648       -0.33682074503850
O            2.75486644071780       -0.72247993737543       -2.18901973013742
C           -1.16967782522760        1.26619095545597        2.75347203641580