37
 energy: -58.035849400366 gnorm: 0.080567374418 xtb: 6.6.1 (8d0f1dd)
C           -2.37752346443603        2.18095894492558        0.23420432364819
C           -1.71655836904686        1.02818088523352       -0.17595889177691
C           -2.25488732595081       -0.05217862247557       -1.09693423518082
C           -1.26200535197666       -1.27278143930798       -1.38188154940494
C            0.21206188513284       -0.77015067885025       -1.42105669959337
C            1.39748814762620       -1.66910348086465       -1.75455764890920
C            2.61699202052838       -1.49649397708085       -1.18126423346212
C            2.95139479257340       -0.41462211084755       -0.13793543981221
C            1.76736343341981        0.55917268052995       -0.01180420623523
C            0.46581696007893       -0.22857241086262       -0.02832972861388
C            0.26436477523888       -1.30776953915889        1.06834375412826
C           -1.10172191755302       -1.99000867039601        0.95729867880392
N           -1.42546634190903       -2.37958489434694       -0.41769955454316
C           -0.40987828003151        0.91745017593296        0.25239367220274
C            0.30627235688963        1.86956571868741        0.96244631569029
C           -0.34623728357346        3.00065002901387        1.38066093616990
C           -1.70065962600328        3.15236214507335        1.02304520895686
O            0.31486032965428        3.95386963526287        2.08901907018237
O            1.64762163989718        1.51140625405422        1.08467011925672
O            3.25592731916304       -1.05596665930308        1.09369433575180
H           -3.41127156943490        2.35527643554975       -0.05437641472380
H           -3.20877193053919       -0.42893391106637       -0.70899263836658
H           -2.46447233209312        0.42534434696453       -2.06306268461597
H           -1.52002196481166       -1.68262249184195       -2.36619505770701
H            0.23715858964700        0.02915971971544       -2.17869025650890
H            1.24171073599061       -2.45490074686932       -2.48883547596690
H            3.42696169202905       -2.16530389434748       -1.46089613768071
H            3.84527446417659        0.13901533478653       -0.44484160833807
H            1.83901390861473        1.19361038178382       -0.91608919006595
H            1.02062895320497       -2.09597831640400        0.99040780652910
H            0.37108459672435       -0.88172198262291        2.07429047872874
H           -1.88789190694940       -1.34427890214318        1.36479057188161
H           -1.10089107086226       -2.88983245407350        1.58312501629823
H           -2.38598309969106       -2.72074088252778       -0.44391330789419
H           -2.24903839253821        4.04101400547548        1.32536632729551
H           -0.30989774548926        4.65501637649647        2.32976105364465
H            3.95118137229977       -1.71050700409504        0.91979729023106
37
 energy: -58.045036105008 gnorm: 0.027325825687 xtb: 6.6.1 (8d0f1dd)
C           -2.37682088252050        2.18341810723214        0.23969614929849
C           -1.72394945076560        1.02510429239745       -0.16569152186961
C           -2.23731915262497       -0.04856464698765       -1.10426384268567
C           -1.26623987803486       -1.26868785098875       -1.38098883071794
C            0.19757636066199       -0.77250161477207       -1.40890072564972
C            1.37063151114045       -1.67168952067968       -1.72271861583752
C            2.57582341907100       -1.47501077042522       -1.17930949263873
C            2.96009556520926       -0.43475650915195       -0.12111735753208
C            1.78134447583887        0.52979430034805       -0.00493893770318
C            0.46146259797729       -0.22591915706749       -0.02762455915085
C            0.28342368255177       -1.31577798613704        1.04468746656742
C           -1.09745526251499       -1.96626799251219        0.95169825071694
N           -1.39722801837555       -2.36137137345936       -0.42174750764568
C           -0.42765008924375        0.91081272762176        0.26661019957753
C            0.29975620726370        1.85738468030803        0.96803712914094
C           -0.35652616796527        3.00200718176989        1.38442900478776
C           -1.70459267262712        3.13142789980655        1.02025984265858
O            0.30044229736031        3.96329264458132        2.09087838172516
O            1.63873084047056        1.49796482765065        1.06289125270682
O            3.25945012591395       -1.06354316355857        1.11432622519143
H           -3.40264981416456        2.36916787482483       -0.04920867614643
H           -3.18219242349039       -0.44769432500971       -0.72334077207064
H           -2.45830895065504        0.42625119710147       -2.06614915193561
H           -1.53223880494943       -1.68539664531839       -2.35944913572669
H            0.22421850076868        0.04079765451432       -2.14990228443517
H            1.22715312107157       -2.45253664595589       -2.45841023219595
H            3.39099281832551       -2.13104891725507       -1.46071992911048
H            3.84960618854448        0.12117416639425       -0.45729071806058
H            1.82646187472532        1.14271580333814       -0.92504991775034
H            1.04934514731578       -2.08608938693848        0.94225523358769
H            0.39613869096491       -0.86817784145976        2.03548777274127
H           -1.87106449194077       -1.29850522602126        1.36327564632312
H           -1.09584754137787       -2.87618291821083        1.56298065855340
H           -2.34892420446797       -2.71955068574086       -0.45570035244290
H           -2.24386957384024        4.02028280855865        1.32093368990533
H           -0.31937182402382        4.66557741383840        2.32657507957891
H            3.94959577840719       -1.71790040263583        0.94750057824500
37
 energy: -58.046695303867 gnorm: 0.009580134004 xtb: 6.6.1 (8d0f1dd)
C           -2.37829530531710        2.17873302206638        0.24182583405438
C           -1.72767772146788        1.01641418578568       -0.16080762715204
C           -2.23621848293593       -0.05317945406531       -1.10490698011252
C           -1.26246613966895       -1.25852024927340       -1.37867484290741
C            0.19329039100211       -0.76267224816838       -1.41130116566993
C            1.35521373902881       -1.66536569945473       -1.71704182284048
C            2.55068441881689       -1.47523467871751       -1.16975444210782
C            2.94886814901027       -0.44758596719896       -0.10816539441542
C            1.78468145097734        0.52722270591104       -0.00566341373206
C            0.46169278562157       -0.22358143177488       -0.02988189129175
C            0.30412671607162       -1.31747826203547        1.03372438925885
C           -1.08297544289226       -1.94973606298909        0.94847339826233
N           -1.37791212351524       -2.34236834665540       -0.42226057534285
C           -0.43509335412398        0.90577394708927        0.27722110356176
C            0.29984705407241        1.85161549083451        0.97473796462642
C           -0.36242912604351        3.00051109765612        1.39021884655205
C           -1.70797774236522        3.11277723516207        1.02049023388242
O            0.28583185298437        3.97077832487345        2.09344793988406
O            1.63743841396352        1.50019742801520        1.04916525804671
O            3.24118942202513       -1.07185942874549        1.12545908058810
H           -3.39962059927589        2.37279436757293       -0.04988307574664
H           -3.18090044051187       -0.46206518705945       -0.73272377547362
H           -2.45668983943385        0.42566201855710       -2.06349258060319
H           -1.53518273890394       -1.67884315834090       -2.35388111992361
H            0.22308244760617        0.06129261344472       -2.14076422415859
H            1.21013573193552       -2.45451735846417       -2.44036057212685
H            3.36782270392259       -2.12888568596059       -1.45049562381782
H            3.84492524337771        0.09519775543498       -0.45719755509054
H            1.82870219822755        1.11911499450216       -0.94113796630465
H            1.06310887131223       -2.08544084930298        0.89820195393958
H            0.43990787117057       -0.87186502056479        2.02053753752984
H           -1.83687240877875       -1.25496069063880        1.35726556912616
H           -1.09928033366849       -2.85997698450328        1.55682909783769
H           -2.31860487511774       -2.72722422676793       -0.46281912654576
H           -2.24143417622931        4.00384616618408        1.32251130456644
H           -0.33387708868159        4.67420212136431        2.32006047064016
H            3.93295847780505       -1.72477248377266        0.97104379300658
37
 energy: -58.047139407375 gnorm: 0.005903027153 xtb: 6.6.1 (8d0f1dd)
C           -2.38277403055952        2.17450820255708        0.24543414400203
C           -1.73000269137410        1.01196120120902       -0.15759545237725
C           -2.23566158833610       -0.05386585865862       -1.10648696378258
C           -1.26228182213897       -1.25631466032814       -1.38019688397009
C            0.18966894806786       -0.75465819360944       -1.41526652000502
C            1.34608117357333       -1.66231772659420       -1.71901182466939
C            2.54101322265053       -1.48116868356457       -1.16415327930103
C            2.94244658568152       -0.45254151986106       -0.10344863454363
C            1.78606764981207        0.53274101138379       -0.00988477557378
C            0.46267428483497       -0.21928366930602       -0.03277643926922
C            0.31942247025797       -1.32079646474814        1.02414227699981
C           -1.07397886984121       -1.93746372329033        0.94850962538892
N           -1.36540086250122       -2.33532144823912       -0.41941110472680
C           -0.43791118099867        0.90548399158747        0.28297900481224
C            0.30124766061979        1.85224841314195        0.97705504320054
C           -0.36528212807259        2.99967330094045        1.39443559054420
C           -1.71164501666593        3.10512198455811        1.02460048934053
O            0.27567349574201        3.97451342329835        2.09676957297827
O            1.63846579089948        1.50663734726083        1.03970465030683
O            3.22163216220983       -1.07322800417960        1.13209249341764
H           -3.40272449642973        2.37109167476746       -0.04873990064826
H           -3.18048896615708       -0.46645128130829       -0.73833608974282
H           -2.45603006795810        0.43113438342205       -2.06217490813307
H           -1.53560366228903       -1.68128842195313       -2.35411985247495
H            0.22063367433565        0.07304653273201       -2.14036802804931
H            1.19762418446990       -2.45342457064590       -2.43932026761062
H            3.35386858419335       -2.14429015296541       -1.43561583694913
H            3.84700834914709        0.07743201801061       -0.45274660330607
H            1.83963828490525        1.11602192593327       -0.95033052352479
H            1.06741978943218       -2.09426418456412        0.86360459927085
H            0.47952747299049       -0.88547681901599        2.01153617014699
H           -1.81550454821425       -1.22463796626772        1.35014892102982
H           -1.10580587724655       -2.84147888694457        1.56351117526333
H           -2.29611173286177       -2.74285554358471       -0.46240793565742
H           -2.24276047604053        3.99765619837300        1.32987937215600
H           -0.34603010672383        4.67880446680216        2.31542140345674
H            3.91588434058584       -1.72694829634873        0.99256729200052
37
 energy: -58.047354896912 gnorm: 0.004249579933 xtb: 6.6.1 (8d0f1dd)
C           -2.38718772673157        2.16936725125166        0.25000895028750
C           -1.73116641215107        1.00837994545345       -0.15496762915239
C           -2.23794350572053       -0.05472121288360       -1.10553417753906
C           -1.26149657021218       -1.25387520747904       -1.38055208778741
C            0.18962637870266       -0.74792356714997       -1.42165318303867
C            1.34340525939807       -1.65977174217679       -1.72422409803870
C            2.53766246242867       -1.48872020865668       -1.16020130664132
C            2.93926602326950       -0.45681930395625       -0.10024726060113
C            1.78826540265199        0.53876009877530       -0.01689633984534
C            0.46522305240309       -0.21506076142886       -0.03778281566355
C            0.33041826916296       -1.32357348854272        1.01374900646814
C           -1.07015199980983       -1.92267914528921        0.94985386175215
N           -1.35688199237102       -2.32991084768665       -0.41508279589154
C           -0.43816355178424        0.90564162811603        0.28542882310934
C            0.30338913669609        1.85390729724526        0.97617530214723
C           -0.36714684188566        2.99749833316709        1.39735716837067
C           -1.71548028654563        3.09945720434592        1.03066154307450
O            0.26682646740145        3.97543705606352        2.10026205980937
O            1.64088989648504        1.51338277512035        1.02957405262309
O            3.20438309471938       -1.07084057512429        1.14049633217633
H           -3.40792626131652        2.36454219322513       -0.04271255914165
H           -3.18409805018203       -0.46716390634521       -0.74040059271115
H           -2.45579192025123        0.43412529770533       -2.06017145835558
H           -1.53603066602969       -1.68299391477445       -2.35265604044668
H            0.21897304415591        0.08014201987964       -2.14573772195262
H            1.19131775392763       -2.45203553119531       -2.44284710647836
H            3.34535043007072       -2.16176765270850       -1.42275972079237
H            3.85091729595071        0.06236979463649       -0.44714708832527
H            1.85192278229266        1.11742485172033       -0.95916304432607
H            1.06219512999828       -2.10718152734615        0.82835298233780
H            0.51832334284577       -0.90306323802500        2.00302286748908
H           -1.80128850073953       -1.19362810837400        1.34038197996720
H           -1.11742027791160       -2.81729160910500        1.57655018615369
H           -2.27748154467566       -2.75769096149938       -0.46048864146143
H           -2.24646175132864        3.99147174350897        1.34089344096005
H           -0.35771347757962        4.68028138241027        2.31075468106645
H            3.90147611466561       -1.72547636287783        1.01770243039773
37
 energy: -58.047411417948 gnorm: 0.002682751710 xtb: 6.6.1 (8d0f1dd)
C           -2.38864346579407        2.16592831157982        0.25429729682173
C           -1.73012402845379        1.00785852420807       -0.15444200148773
C           -2.23707771861763       -0.05451153023595       -1.10573233239604
C           -1.26175951280408       -1.25527997259035       -1.38098660174929
C            0.19025587380939       -0.74780342400167       -1.42446723906763
C            1.34489971624519       -1.66020584776342       -1.72592756605707
C            2.53842266506190       -1.49191296512775       -1.15870287966654
C            2.93970806649031       -0.45791849553531       -0.09959860938670
C            1.78984470882642        0.54058436708753       -0.02049293977234
C            0.46715372625912       -0.21357300564924       -0.04105528340305
C            0.33191006391058       -1.32393358962944        1.00903615012449
C           -1.07222525830996       -1.91385817540074        0.95101806368016
N           -1.35643335707860       -2.32918935000353       -0.41204743367837
C           -0.43611841246309        0.90637783565065        0.28353910133564
C            0.30491559035952        1.85523668931000        0.97380900621315
C           -0.36734772632288        2.99599196917847        1.39799183273221
C           -1.71720108830928        3.09704393852743        1.03525147306012
O            0.26431205125842        3.97442609412050        2.10212959073674
O            1.64289386137424        1.51630744030845        1.02537839435974
O            3.19941430595702       -1.06734827559772        1.14459079281601
H           -3.41079085976188        2.35840479210671       -0.03574905159558
H           -3.18352524545776       -0.46629624681868       -0.74104159645367
H           -2.45398704882955        0.43483743948014       -2.06047621354624
H           -1.53730671667368       -1.68600823368328       -2.35190088489363
H            0.21779931949751        0.07810097550670       -2.15061244694852
H            1.19312905981423       -2.45037330824410       -2.44711276148942
H            3.34483503568464       -2.16662118966275       -1.41997780375678
H            3.85309537740634        0.05807681329031       -0.44512871591764
H            1.85683522686511        1.11856495773785       -0.96255732600120
H            1.05341240582835       -2.11417730975108        0.81409822120191
H            0.53254082733248       -0.91048895532571        1.99830032838109
H           -1.79966646685634       -1.17795030593113        1.33349993170000
H           -1.12615721177054       -2.80197802353962        1.58628843645438
H           -2.27321692157938       -2.76244615591702       -0.45844986469153
H           -2.24968012521452        3.98708669680679        1.34859435966133
H           -0.36176953646477        4.67885280461385        2.30980151042861
H            3.89765281878097       -1.72180528910495        1.02883506225169
37
 energy: -58.047438015568 gnorm: 0.001415005243 xtb: 6.6.1 (8d0f1dd)
C           -2.38947269150950        2.16284899263200        0.25802178088973
C           -1.72916618755147        1.00781381397267       -0.15509722208622
C           -2.23632316646264       -0.05443771607727       -1.10668520609731
C           -1.26159304484605       -1.25673227525176       -1.38034805610419
C            0.19177810019948       -0.75007560815163       -1.42640347337086
C            1.34830257374927       -1.66123852042416       -1.72724432826863
C            2.54103500230022       -1.49263527150215       -1.15897787004983
C            2.94111001706472       -0.45845106710030       -0.09936948498011
C            1.79121322470439        0.54034836468114       -0.02327653228026
C            0.46859650395679       -0.21310436337435       -0.04414785235509
C            0.33110882155932       -1.32318970544080        1.00648432868024
C           -1.07598005482160       -1.90566619746270        0.95280725116921
N           -1.35834586744830       -2.32829440454955       -0.40863618029541
C           -0.43399315276924        0.90703796597492        0.27956423681019
C            0.30574943052996        1.85586179875273        0.97070208053435
C           -0.36748526702946        2.99424525774419        1.39817813378480
C           -1.71854834144068        3.09448694621012        1.03945415956050
O            0.26384037574393        3.97240790265389        2.10355767471056
O            1.64412831639591        1.51711758149370        1.02269019920756
O            3.19743926721388       -1.06504734950469        1.14712448870092
H           -3.41343304034274        2.35219112074376       -0.02797619746236
H           -3.18360960302594       -0.46476665906650       -0.74273916671330
H           -2.45121566977993        0.43421705586374       -2.06220061149247
H           -1.53808209242800       -1.68849574417364       -2.35013409769600
H            0.21739144736701        0.07311885228898       -2.15552630123019
H            1.19802229123981       -2.44998251836303       -2.45048340718072
H            3.34779290681708       -2.16649243156682       -1.42061359630312
H            3.85497229875252        0.05657697097781       -0.44367470683768
H            1.85894192230319        1.11853766648833       -0.96488119305245
H            1.04495284386590       -2.11840892014220        0.80599047551826
H            0.53958090383778       -0.91339595818462        1.99479569588222
H           -1.80125007121856       -1.16479449516698        1.32799127728938
H           -1.13436555320222       -2.78859053495740        1.59490491587681
H           -2.27386661411270       -2.76256139908700       -0.45584158595348
H           -2.25302219495941        3.98178185276717        1.35615823480855
H           -0.36307103778888        4.67614489259394        2.31061444575963
H            3.89686740313611       -1.71837589629169        1.03521769062680
37
 energy: -58.047448934322 gnorm: 0.001218069107 xtb: 6.6.1 (8d0f1dd)
C           -2.39022774703986        2.15994709748542        0.26121233571605
C           -1.72852609279406        1.00785241697065       -0.15680146728078
C           -2.23446224677656       -0.05433742552713       -1.10956318892743
C           -1.26143482305846       -1.25906481076834       -1.37994691912144
C            0.19278756680132       -0.75336251719796       -1.42735287141158
C            1.35080476913286       -1.66331563780544       -1.72710701987100
C            2.54321967630350       -1.49237774783814       -1.15952628678619
C            2.94221517081743       -0.45852136337692       -0.09949316385127
C            1.79234388443386        0.53955303095816       -0.02522302398356
C            0.46962853237093       -0.21289992308104       -0.04684149517095
C            0.32969063808315       -1.32129958058111        1.00578378699924
C           -1.07939101592791       -1.89872803087749        0.95507316684416
N           -1.36130089069353       -2.32717060076655       -0.40487744004869
C           -0.43225360748846        0.90791065934610        0.27460855671196
C            0.30603244177173        1.85609539217192        0.96769226293618
C           -0.36788953380000        2.99261342263946        1.39859898228066
C           -1.71979613279703        3.09135849105205        1.04333086144912
O            0.26435231393456        3.96999086449644        2.10507720895765
O            1.64473963873326        1.51711941960518        1.02103252801658
O            3.19641227807442       -1.06479998285275        1.14766289961649
H           -3.41576900861564        2.34679981610401       -0.02085164331855
H           -3.18321208890491       -0.46318161552598       -0.74776112725390
H           -2.44605521433182        0.43360297991617       -2.06607710325046
H           -1.53846753754452       -1.69251373358867       -2.34865552019343
H            0.21756780550216        0.06749343009764       -2.15940606537125
H            1.20303796670342       -2.45060538905164       -2.45250122915995
H            3.35188773548603       -2.16297898867936       -1.42376215366599
H            3.85640549614684        0.05662173949069       -0.44254660687457
H            1.85955951025523        1.11798736820853       -0.96668283190368
H            1.03908523821112       -2.11953439188944        0.80282798920956
H            0.54234625943146       -0.91170197373398        1.99270007525325
H           -1.80271561581524       -1.15373221937832        1.32491647982800
H           -1.14088984483532       -2.77791158338450        1.60186586525978
H           -2.27796558112745       -2.75911372338761       -0.45186154278511
H           -2.25627589650170        3.97579138962923        1.36363425004149
H           -0.36283872517724        4.67280649122698        2.31370629353760
H            3.89735468103635       -1.71639277010640        1.03711515757204
37
 energy: -58.047454581636 gnorm: 0.000719147484 xtb: 6.6.1 (8d0f1dd)
C           -2.39094383546115        2.15864441690085        0.26190948466000
C           -1.72888564960250        1.00745316106816       -0.15811494737345
C           -2.23390094489030       -0.05417045632944       -1.11207822735446
C           -1.26114563120133       -1.25961107050198       -1.37942393327779
C            0.19313456257933       -0.75482762465460       -1.42765992978074
C            1.35136390722352       -1.66408920019949       -1.72759410780859
C            2.54405641191245       -1.49164941200043       -1.16093820160428
C            2.94226886078724       -0.45860876009562       -0.09995898803886
C            1.79268007581448        0.53937549552294       -0.02609496356498
C            0.46983711791830       -0.21276096247239       -0.04796384114328
C            0.32979841303276       -1.31980530698995        1.00627997088210
C           -1.07964571242258       -1.89629080406647        0.95646534873688
N           -1.36236347047720       -2.32596288670258       -0.40286538310926
C           -0.43221773010490        0.90822851189417        0.27244780800292
C            0.30576665434170        1.85580792562116        0.96663160564026
C           -0.36850957810955        2.99172294821365        1.39914655119608
C           -1.72056997660709        3.08934326379452        1.04475247423398
O            0.26420483607177        3.96847645178760        2.10616190848984
O            1.64453437702590        1.51692059386442        1.02013125290429
O            3.19544204725670       -1.06629184351892        1.14671058845278
H           -3.41689591041275        2.34515122007861       -0.01873800416237
H           -3.18432010457193       -0.46174021364342       -0.75305795129349
H           -2.44197785733978        0.43401283562548       -2.06923924476115
H           -1.53804544104011       -1.69464673301481       -2.34755313834160
H            0.21796959287512        0.06553055160166       -2.16047148603642
H            1.20407654511663       -2.45253564781778       -2.45178517046307
H            3.35324890320791       -2.16191893526258       -1.42499929029607
H            3.85703584127858        0.05663538796753       -0.44191862616464
H            1.86001986316312        1.11772282367498       -0.96770559599261
H            1.03935611170000       -2.11816993843545        0.80424194373900
H            0.54248740671421       -0.90841300123535        1.99256231466455
H           -1.80194511651974       -1.14998341155505        1.32576914693043
H           -1.14194552281380       -2.77483800521887        1.60381646070568
H           -2.28074634704595       -2.75526947355080       -0.44871152879350
H           -2.25769179785224        3.97275161179199        1.36694822112293
H           -0.36297491257195        4.67070679606546        2.31682559735429
H            3.89744401102506       -1.71690030820737        1.03607188164462
37
 energy: -58.047458586737 gnorm: 0.000573030514 xtb: 6.6.1 (8d0f1dd)
C           -2.39198227616073        2.15687952826716        0.26289962152992
C           -1.72914943076802        1.00686058193092       -0.15946774975275
C           -2.23255742215769       -0.05367709074882       -1.11542418253261
C           -1.26103540515024       -1.26051742151746       -1.37958288102341
C            0.19317388797187       -0.75603431973109       -1.42822651787466
C            1.35091987890899       -1.66609884455649       -1.72691292481303
C            2.54406116857601       -1.49239266942002       -1.16126679984885
C            2.94226474870741       -0.45870108061960       -0.10088786431001
C            1.79309711387508        0.53978591556717       -0.02750167449190
C            0.47023898707238       -0.21233906665824       -0.04936106930148
C            0.33028998384593       -1.31774053512123        1.00670459731954
C           -1.07935140585777       -1.89355279214393        0.95808753543619
N           -1.36370805349113       -2.32447211081217       -0.40051470184968
C           -0.43210669885316        0.90870991942465        0.27037823104554
C            0.30571377883538        1.85561942676114        0.96555922942795
C           -0.36932874223855        2.99055592442826        1.40005290758410
C           -1.72168579982480        3.08685805492834        1.04669082460501
O            0.26318937276127        3.96661360264604        2.10790778523826
O            1.64458275896311        1.51738733853359        1.01840601303572
O            3.19457571121298       -1.06748333345968        1.14542390328165
H           -3.41833506754557        2.34312433775218       -0.01640534403343
H           -3.18545457822714       -0.45937148777278       -0.76085375569447
H           -2.43526699599914        0.43533350206468       -2.07339901118120
H           -1.53776844214794       -1.69803697472646       -2.34683487314058
H            0.21857260897743        0.06385471191117       -2.16172529936430
H            1.20418991071378       -2.45456926259618       -2.45112732691639
H            3.35382204514852       -2.16161248043458       -1.42628557356888
H            3.85774486377404        0.05620569412323       -0.44196673442304
H            1.86112499908118        1.11768320933565       -0.96943549332250
H            1.04022733517473       -2.11635213161033        0.80630770840701
H            0.54303224262407       -0.90425607544748        1.99234596430867
H           -1.80047183766044       -1.14608863579349        1.32738037529420
H           -1.14222340759460       -2.77143054385609        1.60618907583735
H           -2.28406856811056       -2.75050708971911       -0.44437489491611
H           -2.25945911393521        3.96927247339675        1.37097908352318
H           -0.36432906045015        4.66781514137827        2.32133919373408
H            3.89746090994861       -1.71732541570414        1.03490262275094
